
                                 *****************
                                 * O   R   C   A *
                                 *****************

                                            #,                                       
                                            ###                                      
                                            ####                                     
                                            #####                                    
                                            ######                                   
                                           ########,                                 
                                     ,,################,,,,,                         
                               ,,#################################,,                 
                          ,,##########################################,,             
                       ,#########################################, ''#####,          
                    ,#############################################,,   '####,        
                  ,##################################################,,,,####,       
                ,###########''''           ''''###############################       
              ,#####''   ,,,,##########,,,,          '''####'''          '####       
            ,##' ,,,,###########################,,,                        '##       
           ' ,,###''''                  '''############,,,                           
         ,,##''                                '''############,,,,        ,,,,,,###''
      ,#''                                            '''#######################'''  
     '                                                          ''''####''''         
             ,#######,   #######,   ,#######,      ##                                
            ,#'     '#,  ##    ##  ,#'     '#,    #''#        ,####,    ,#,          
            ##       ##  ##   ,#'  ##            #'  '#       #'       ,# #          
            ##       ##  #######   ##           ,######,      #####,      #          
            '#,     ,#'  ##    ##  '#,     ,#' ,#      #,     #,   #      #          
             '#######'   ##     ##  '#######'  #'      '#     '####' #    #          



                #########################################################
                #                        -***-                          #
                #          Department of theory and spectroscopy        #
                #                                                       #
                #                      Frank Neese                      #
                #                                                       #
                #     Directorship, Architecture, Infrastructure        #
                #                    SHARK, DRIVERS                     #
                #        Core code/Algorithms in most modules           #
                #                                                       #
                #        Max Planck Institute fuer Kohlenforschung      #
                #                Kaiser Wilhelm Platz 1                 #
                #                 D-45470 Muelheim/Ruhr                 #
                #                      Germany                          #
                #                                                       #
                #                  All rights reserved                  #
                #                        -***-                          #
                #########################################################


                         Program Version 6.1.0  -  RELEASE   -


 With contributions from (in alphabetic order):
[Max-Planck-Institut fuer Kohlenforschung]                               
  Daniel Aravena         : Magnetic Suceptibility                        
  Michael Atanasov       : Ab Initio Ligand Field Theory (pilot matlab implementation)
  Alexander A. Auer      : GIAO ZORA, VPT2 properties, NMR spectrum      
  Ute Becker             : All parallelization in ORCA, NUMFREQ, NUMCALC 
  Giovanni Bistoni       : ED, misc. LED, open-shell LED, HFLD           
  Dmytro Bykov           : pre 5.0 version of the SCF Hessian            
  Marcos Casanova-Páez   : Triplet and SCS-CIS(D). UHF-(DLPNO)-IP/EA/STEOM-CCSD. UHF-CVS-IP/STEOM-CCSD   
  Vijay G. Chilkuri      : MRCI spin determinant printing, contributions to CSF-ICE 
  Pauline Colinet        : FMM embedding                                 
  Dipayan Datta          : RHF DLPNO-CCSD density                        
  Achintya Kumar Dutta   : EOM-CC, STEOM-CC                              
  Nicolas Foglia         : Exact transition moments, OPA infrastructure, MCD improvements    
  Dmitry Ganyushin       : Spin-Orbit,Spin-Spin,Magnetic field MRCI      
  Miquel Garcia-Rates    : C-PCM and meta-GGA Hessian, CCSD/C-PCM, Gaussian charge scheme 
  Tiago L. C. Gouveia    : GS-ROHF, GS-ROCIS                             
  Yang Guo               : DLPNO-NEVPT2, F12-NEVPT2, CIM, IAO-localization        
  Andreas Hansen         : Spin unrestricted coupled pair/coupled cluster methods 
  Ingolf Harden          : AUTO-CI MPn and infrastructure                
  Benjamin Helmich-Paris : MC-RPA, TRAH-(SCF,CASSCF), AVAS, COSX integrals, SCF dyn. polar., MC-PDFT, srDFT 
  Lee Huntington         : MR-EOM, pCC                                   
  Robert Izsak           : Overlap fitted RIJCOSX, COSX-SCS-MP3, EOM     
  Riya Kayal             : Wick's Theorem for AUTO-CI, AUTO-CI UHF-CCSDT 
  Emily Kempfer          : AUTO-CI RHF CISDT and CCSDT, approximate NEVPT4
  Christian Kollmar      : KDIIS, OOCD, Brueckner-CCSD(T), CCSD density, CASPT2, CASPT2-K, improved NEVPT2 
  Axel Koslowski         : Symmetry handling                             
  Simone Kossmann        : meta-GGA functionals, TD-DFT gradient, OOMP2, (MP2 Hessian; deprecated post 5.0) 
  Lucas Lang             : DCDCAS, Hyperfine gauge corrections, ICE-SOC+SSC
  Marvin Lechner         : AUTO-CI (C++ implementation), FIC-MRCC        
  Spencer Leger          : CASSCF response                               
  Dagmar Lenk            : GEPOL surface, SMD, ORCA-2-JSON               
  Dimitrios Liakos       : Extrapolation schemes; Compound Job, Property file
  Dimitrios Manganas     : Further ROCIS development; embedding schemes. LFT, Crystal Embedding 
  Dimitrios Pantazis     : SARC Basis sets                               
  Anastasios Papadopoulos: AUTO-CI, single reference methods and gradients 
  Taras Petrenko         : pre 6.0 DFT Hessian and TD-DFT gradient,  ECA, NRVS 
  Petra Pikulova         : Analytic Raman intensities                    
  Peter Pinski           : DLPNO-MP2, DLPNO-MP2 Gradient                 
  Shashank Vittal Rao    : ES-AILFT, MagRelax                            
  Christoph Reimann      : Effective Core Potentials                     
  Marius Retegan         : Local ZFS, SOC                                
  Christoph Riplinger    : Optimizer, TS searches, QM/MM, DLPNO-CCSD(T), (RO)-DLPNO pert. Triples 
  Michael Roemelt        : Original ROCIS implementation, recursive CI coupling coefficients
  Masaaki Saitow         : Open-shell DLPNO-CCSD energy and density      
  Barbara Sandhoefer     : DKH picture change effects                    
  Yorick L. A. Schmerwitz: GMF and freeze-and-release deltaSCF, NEB S-IDPP initial path                    
  Kantharuban Sivalingam : CASSCF convergence/infrastructure, NEVPT2, NEVPT3, NEVPT4(SD), FIC-MRCI and CEPA variants
  Bernardo de Souza      : ESD, SOC TD-DFT                               
  Georgi L. Stoychev     : AutoAux, RI-MP2 NMR, DLPNO-MP2 response, X2C  
  Van Anh Tran           : RI-MP2 g-tensors                              
  Willem Van den Heuvel  : Paramagnetic NMR                              
  Zikuan Wang            : NOTCH, Electric field optimization            
  Frank Wennmohs         : Technical directorship and infrastructure     
  Hang Xu                : AUTO-CI-Response properties                   
                                                                         
[FACCTs GmbH]                                                            
  Markus Bursch, Nicolas Foglia, Miquel Garcia-Rates, Ingolf Harden, Hagen Neugebauer, Anastasios Papadopoulos, 
  Christoph Riplinger, Bernardo de Souza, Georgi L. Stoychev                                                    
                                                                 
  APM, various basis sets, CI-OPT, improved COSX, DLPNO-Multilevel,           
  DOCKER, DRACO, updates on ESD, Fragmentator, GOAT, IRC, LR-CPCM, L-BFGS, MBIS, meta-GGA TD-DFT gradient, ML-optimized integration grids, 
  MM, NACMEs, nearIR, NEB, NEB-TS, NL-DFT gradient (VV10), 2- and 3-layer-ONIOM, interface openCOSMO-RS, QMMM,   
  Crystal-QMMM, RESP, rigid body optimization, SF, symmetry and pop. for TD-DFT, various functionals, SOLVATOR                                   
                                                                         
[Other institutions]                                                     
  V. Asgeirsson          : NEB                                           
  Christoph Bannwarth    : sTDA-DFT, sTD-DFT, PBEh-3c, B97-3c, D3        
  Giovanni Bistoni       : ETS/NOCV, ADLD/ADEX, COVALED                  
  Martin Brehm           : Molecular dynamics                            
  Ronald Cardenas        : ETS/NOCV                                      
  Martina Colucci        : COVALED                                       
  Sebastian Ehlert       : rSCAN, r2SCAN, r2SCAN-3c, D4, dhf basis sets  
  Marvin Friede          : D4 for Fr, Ra, Ac-Lr                          
  Lars Goerigk           : TD-DFT with DH, B97 family of functionals     
  Stefan Grimme          : VdW corrections, initial TS optimization, DFT functionals, gCP, sTDA/sTD-DF 
  Waldemar Hujo          : DFT-NL                                        
  H. Jonsson             : NEB                                           
  Holger Kruse           : gCP                                           
  Marcel Mueller         : wB97X-3c, vDZP basis set                      
  Hagen Neugebauer       : wr2SCAN, Native XTB                           
  Gianluca Regni         : ADLD/ADEX                                     
  Tobias Risthaus        : pre 6.0 range-separated hybrid DFT and stability analysis
  Lukas Wittmann         : regularized MP2, r2SCAN double-hybrids, wr2SCAN        
                                                                         
We gratefully acknowledge several colleagues who have allowed us to      
interface, adapt or use parts of their codes:                            
  Ed Valeev, F. Pavosevic, A. Kumar             : LibInt (2-el integral package), F12 methods 
  Garnet Chan, S. Sharma, J. Yang, R. Olivares  : DMRG                   
  Ulf Ekstrom                                   : XCFun DFT Library      
  Mihaly Kallay                                 : mrcc  (arbitrary order and MRCC methods)
  Frank Weinhold                                : gennbo (NPA and NBO analysis)           
  Simon Mueller                                 : openCOSMO-RS                            
  Christopher J. Cramer and Donald G. Truhlar   : smd solvation model                     
  S Lehtola, MJT Oliveira, MAL Marques          : LibXC Library                           
  Liviu Ungur et al                             : ANISO software                          


 Your calculation uses the libint2 library for the computation of 2-el integrals
 For citations please refer to: http://libint.valeyev.net

 Your ORCA version has been built with support for libXC version: 7.0.0
 For citations please refer to: https://libxc.gitlab.io

 This ORCA versions uses:
   CBLAS   interface :  Fast vector & matrix operations
   LAPACKE interface :  Fast linear algebra routines
   Shared memory     :  Shared parallel matrices


  ***********************************
  * Starting time: Thu Dec 25 20:51:02 2025
  * Host name:     FREDDY-YOGA
  * Process ID:    20788
  * Working dir.:  c:\Users\SellIT\Desktop\Coding\IR_ORCA_pipeline\orca_inputs\003
  ***********************************

Warning: RI is on but no J-basis has been assigned. Assigning Def2/J (nothing to worry about!)
================================================================================

----- Orbital basis set information -----
Your calculation utilizes the basis: def2-SVP
   F. Weigend and R. Ahlrichs, Phys. Chem. Chem. Phys. 7, 3297 (2005).

----- AuxJ basis set information -----
Your calculation utilizes the auxiliary basis: def2/J
   H-Rn: F. Weigend, Phys. Chem. Chem. Phys. 8, 1057 (2006).
   Fr-Lr: K. Eichkorn, F. Weigend, O. Treutler, R. Ahlrichs; Theor. Chem. Acc. 97, 119 (1997).

================================================================================
                                        WARNINGS
                       Please study these warnings very carefully!
================================================================================



WARNING: Found flag for RIJCOSX approximation but no HF exchange needed!
  ===> : RIJCOSX  will be disabled and Split-RI-J is turned on

WARNING: Geometry Optimization
  ===> : Switching off AutoStart
         For restart on a previous wavefunction, please use MOREAD

================================================================================
                                       INPUT FILE
================================================================================
NAME = 003.inp
|  1> ! PBE def2-SVP Opt Freq RIJCOSX
|  2> 
|  3> * xyz 0 1
|  4> C     -1.463568    0.623649    0.203765
|  5> C     -0.792923   -0.604928   -0.391231
|  6> C      0.689176   -0.722130   -0.034390
|  7> C      1.542944    0.391688   -0.620629
|  8> H     -1.335059    0.654144    1.290329
|  9> H     -2.537149    0.605852   -0.009874
| 10> H     -1.057110    1.546905   -0.219383
| 11> H     -1.311236   -1.498130   -0.022535
| 12> H     -0.914851   -0.594842   -1.480616
| 13> H      0.810558   -0.739210    1.054968
| 14> H      1.062600   -1.682263   -0.410014
| 15> H      1.284656    1.363723   -0.190395
| 16> H      1.421369    0.449857   -1.706862
| 17> H      2.600593    0.205684   -0.407749
| 18> *
| 19> 
| 20>                          ****END OF INPUT****
================================================================================

                       *****************************
                       * Geometry Optimization Run *
                       *****************************

Geometry optimization settings:
Update method            Update   .... BFGS
Choice of coordinates    CoordSys .... (2022) Redundant Internals
Initial Hessian          InHess   .... Almloef's Model
Max. no of cycles        MaxIter  .... 50

Convergence Tolerances:
Energy Change            TolE     ....  5.0000e-06 Eh
Max. Gradient            TolMAXG  ....  3.0000e-04 Eh/bohr
RMS Gradient             TolRMSG  ....  1.0000e-04 Eh/bohr
Max. Displacement        TolMAXD  ....  4.0000e-03 bohr
RMS Displacement         TolRMSD  ....  2.0000e-03 bohr
Strict Convergence                .... False

------------------------------------------------------------------------------
                        ORCA OPTIMIZATION COORDINATE SETUP
------------------------------------------------------------------------------

The optimization will be done in redundant internal coordinates (2022)
Making redundant internal coordinates   ...  (2022 redundants) done
Evaluating the initial hessian          ...  (Almloef) done
Evaluating the coordinates              ...  done
Calculating the B-matrix                .... done
Calculating the G-matrix                .... done
The number of degrees of freedom        ....   55

    -----------------------------------------------------------------
                    Redundant Internal Coordinates


    -----------------------------------------------------------------
         Definition                    Initial Value    Approx d2E/dq
    -----------------------------------------------------------------
      1. B(C   1,C   0)                  1.5209         0.386251   
      2. B(C   2,C   1)                  1.5290         0.375018   
      3. B(C   3,C   2)                  1.5209         0.386251   
      4. B(H   4,C   0)                  1.0946         0.354115   
      5. B(H   5,C   0)                  1.0948         0.353837   
      6. B(H   6,C   0)                  1.0939         0.354950   
      7. B(H   7,C   1)                  1.0965         0.351554   
      8. B(H   8,C   1)                  1.0962         0.351948   
      9. B(H   9,C   2)                  1.0962         0.351949   
     10. B(H  10,C   2)                  1.0965         0.351555   
     11. B(H  11,C   3)                  1.0939         0.354948   
     12. B(H  12,C   3)                  1.0946         0.354115   
     13. B(H  13,C   3)                  1.0948         0.353836   
     14. A(H   4,C   0,H   6)          108.4727         0.289421   
     15. A(H   4,C   0,H   5)          108.0173         0.289278   
     16. A(H   5,C   0,H   6)          107.6140         0.289385   
     17. A(C   1,C   0,H   4)          111.0440         0.325205   
     18. A(C   1,C   0,H   5)          110.0559         0.325163   
     19. A(C   1,C   0,H   6)          111.5059         0.325331   
     20. A(H   7,C   1,H   8)          106.8015         0.288707   
     21. A(C   2,C   1,H   8)          109.9045         0.323307   
     22. A(C   0,C   1,H   8)          109.4077         0.324877   
     23. A(C   2,C   1,H   7)          108.4987         0.323247   
     24. A(C   0,C   1,C   2)          113.4565         0.365673   
     25. A(C   0,C   1,H   7)          108.5438         0.324817   
     26. A(C   3,C   2,H   9)          109.4077         0.324877   
     27. A(C   1,C   2,H   9)          109.9045         0.323307   
     28. A(H   9,C   2,H  10)          106.8015         0.288708   
     29. A(C   3,C   2,H  10)          108.5438         0.324818   
     30. A(C   1,C   2,H  10)          108.4987         0.323248   
     31. A(C   1,C   2,C   3)          113.4565         0.365673   
     32. A(H  12,C   3,H  13)          108.0174         0.289278   
     33. A(H  11,C   3,H  13)          107.6137         0.289385   
     34. A(C   2,C   3,H  13)          110.0560         0.325163   
     35. A(H  11,C   3,H  12)          108.4728         0.289421   
     36. A(C   2,C   3,H  12)          111.0441         0.325205   
     37. A(C   2,C   3,H  11)          111.5059         0.325331   
     38. D(H   7,C   1,C   0,H   5)    -54.2582         0.011871   
     39. D(C   2,C   1,C   0,H   4)    -55.3905         0.011871   
     40. D(H   7,C   1,C   0,H   6)   -173.6049         0.011871   
     41. D(C   2,C   1,C   0,H   6)     65.7074         0.011871   
     42. D(C   2,C   1,C   0,H   5)   -174.9459         0.011871   
     43. D(H   7,C   1,C   0,H   4)     65.2971         0.011871   
     44. D(C   3,C   2,C   1,C   0)    -65.2970         0.011225   
     45. D(H   9,C   2,C   1,H   8)   -179.6100         0.011225   
     46. D(H   9,C   2,C   1,H   7)    -63.1667         0.011225   
     47. D(H   9,C   2,C   1,C   0)     57.5464         0.011225   
     48. D(C   3,C   2,C   1,H   8)     57.5465         0.011225   
     49. D(C   3,C   2,C   1,H   7)    173.9899         0.011225   
     50. D(H  11,C   3,C   2,H  10)   -173.6049         0.011871   
     51. D(H  11,C   3,C   2,H   9)    -57.4095         0.011871   
     52. D(H  11,C   3,C   2,C   1)     65.7074         0.011871   
     53. D(H  12,C   3,C   2,H  10)     65.2971         0.011871   
     54. D(H  12,C   3,C   2,H   9)   -178.5076         0.011871   
     55. D(H  12,C   3,C   2,C   1)    -55.3906         0.011871   
    -----------------------------------------------------------------

Number of atoms                         .... 14
Number of degrees of freedom            .... 55


         *************************************************************
         *                GEOMETRY OPTIMIZATION CYCLE   1            *
         *************************************************************
---------------------------------
CARTESIAN COORDINATES (ANGSTROEM)
---------------------------------
  C     -1.463568    0.623649    0.203765
  C     -0.792923   -0.604928   -0.391231
  C      0.689176   -0.722130   -0.034390
  C      1.542944    0.391688   -0.620629
  H     -1.335059    0.654144    1.290329
  H     -2.537149    0.605852   -0.009874
  H     -1.057110    1.546905   -0.219383
  H     -1.311236   -1.498130   -0.022535
  H     -0.914851   -0.594842   -1.480616
  H      0.810558   -0.739210    1.054968
  H      1.062600   -1.682263   -0.410014
  H      1.284656    1.363723   -0.190395
  H      1.421369    0.449857   -1.706862
  H      2.600593    0.205684   -0.407749

----------------------------
CARTESIAN COORDINATES (A.U.)
----------------------------
  NO LB      ZA    FRAG     MASS         X           Y           Z
   0 C     6.0000    0    12.011   -2.765743    1.178526    0.385060
   1 C     6.0000    0    12.011   -1.498407   -1.143148   -0.739319
   2 C     6.0000    0    12.011    1.302354   -1.364628   -0.064988
   3 C     6.0000    0    12.011    2.915742    0.740183   -1.172819
   4 H     1.0000    0     1.008   -2.522896    1.236153    2.438368
   5 H     1.0000    0     1.008   -4.794517    1.144894   -0.018659
   6 H     1.0000    0     1.008   -1.997648    2.923227   -0.414574
   7 H     1.0000    0     1.008   -2.477877   -2.831055   -0.042585
   8 H     1.0000    0     1.008   -1.728818   -1.124088   -2.797959
   9 H     1.0000    0     1.008    1.531733   -1.396904    1.993601
  10 H     1.0000    0     1.008    2.008023   -3.179016   -0.774814
  11 H     1.0000    0     1.008    2.427648    2.577063   -0.359794
  12 H     1.0000    0     1.008    2.685998    0.850107   -3.225502
  13 H     1.0000    0     1.008    4.914409    0.388686   -0.770534

--------------------------------
INTERNAL COORDINATES (ANGSTROEM)
--------------------------------
 C      0   0   0     0.000000000000     0.00000000     0.00000000
 C      1   0   0     1.520916303079     0.00000000     0.00000000
 C      2   1   0     1.528950376528   113.45652755     0.00000000
 C      3   2   1     1.520916335657   113.45647043   294.70295420
 H      1   2   3     1.094561937125   111.04403740   304.60951381
 H      1   2   3     1.094776013206   110.05594235   185.05414179
 H      1   2   3     1.093921376153   111.50590614    65.70742516
 H      2   1   3     1.096537696201   108.54378444   120.68762748
 H      2   1   3     1.096233480060   109.40774167   236.88303858
 H      3   2   1     1.096232716392   109.90452068    57.54642010
 H      3   2   1     1.096537391447   108.49874881   173.98983693
 H      4   3   2     1.093922313021   111.50593839    65.70742156
 H      4   3   2     1.094562124082   111.04411470   304.60936178
 H      4   3   2     1.094777050187   110.05597028   185.05390828

---------------------------
INTERNAL COORDINATES (A.U.)
---------------------------
 C      0   0   0     0.000000000000     0.00000000     0.00000000
 C      1   0   0     2.874115285434     0.00000000     0.00000000
 C      2   1   0     2.889297483994   113.45652755     0.00000000
 C      3   2   1     2.874115346999   113.45647043   294.70295420
 H      1   2   3     2.068422297780   111.04403740   304.60951381
 H      1   2   3     2.068826842945   110.05594235   185.05414179
 H      1   2   3     2.067211812971   111.50590614    65.70742516
 H      2   1   3     2.072155941340   108.54378444   120.68762748
 H      2   1   3     2.071581056149   109.40774167   236.88303858
 H      3   2   1     2.071579613025   109.90452068    57.54642010
 H      3   2   1     2.072155365439   108.49874881   173.98983693
 H      4   3   2     2.067213583395   111.50593839    65.70742156
 H      4   3   2     2.068422651078   111.04411470   304.60936178
 H      4   3   2     2.068828802556   110.05597028   185.05390828

---------------------
BASIS SET INFORMATION
---------------------
There are 2 groups of distinct atoms

 Group   1 Type C   : 7s4p1d contracted to 3s2p1d pattern {511/31/1}
 Group   2 Type H   : 4s1p contracted to 2s1p pattern {31/1}

Atom   0C    basis set group =>   1
Atom   1C    basis set group =>   1
Atom   2C    basis set group =>   1
Atom   3C    basis set group =>   1
Atom   4H    basis set group =>   2
Atom   5H    basis set group =>   2
Atom   6H    basis set group =>   2
Atom   7H    basis set group =>   2
Atom   8H    basis set group =>   2
Atom   9H    basis set group =>   2
Atom  10H    basis set group =>   2
Atom  11H    basis set group =>   2
Atom  12H    basis set group =>   2
Atom  13H    basis set group =>   2
---------------------------------
AUXILIARY/J BASIS SET INFORMATION
---------------------------------
There are 2 groups of distinct atoms

 Group   1 Type C   : 12s5p4d2f1g contracted to 6s4p3d1f1g pattern {711111/2111/211/2/1}
 Group   2 Type H   : 5s2p1d contracted to 3s1p1d pattern {311/2/1}

Atom   0C    basis set group =>   1
Atom   1C    basis set group =>   1
Atom   2C    basis set group =>   1
Atom   3C    basis set group =>   1
Atom   4H    basis set group =>   2
Atom   5H    basis set group =>   2
Atom   6H    basis set group =>   2
Atom   7H    basis set group =>   2
Atom   8H    basis set group =>   2
Atom   9H    basis set group =>   2
Atom  10H    basis set group =>   2
Atom  11H    basis set group =>   2
Atom  12H    basis set group =>   2
Atom  13H    basis set group =>   2
------------------------------------------------------------------------------
                             ORCA STARTUP CALCULATIONS
                           -- RI-GTO INTEGRALS CHOSEN --
------------------------------------------------------------------------------
------------------------------------------------------------------------------
                   ___                                                        
                  /   \      - P O W E R E D   B Y -                         
                 /     \                                                     
                 |  |  |   _    _      __       _____    __    __             
                 |  |  |  | |  | |    /  \     |  _  \  |  |  /  |          
                  \  \/   | |  | |   /    \    | | | |  |  | /  /          
                 / \  \   | |__| |  /  /\  \   | |_| |  |  |/  /          
                |  |  |   |  __  | /  /__\  \  |    /   |      \           
                |  |  |   | |  | | |   __   |  |    \   |  |\   \          
                \     /   | |  | | |  |  |  |  | |\  \  |  | \   \       
                 \___/    |_|  |_| |__|  |__|  |_| \__\ |__|  \__/        
                                                                              
                      - O R C A' S   B I G   F R I E N D -                    
                                      &                                       
                       - I N T E G R A L  F E E D E R -                       
                                                                              
 v1 FN, 2020, v2 2021, v3 2022-2024                                           
------------------------------------------------------------------------------


----------------------
SHARK INTEGRAL PACKAGE
----------------------

Number of atoms                             ...     14
Number of basis functions                   ...    106
Number of shells                            ...     54
Maximum angular momentum                    ...      2
Integral batch strategy                     ... SHARK/LIBINT Hybrid
RI-J (if used) integral strategy            ... SPLIT-RIJ (Revised 2003 algorithm where possible)
Printlevel                                  ...      1
Contraction scheme used                     ... SEGMENTED contraction
Prescreening option                         ... SCHWARTZ
   Thresh                                   ... 2.500e-11
   Tcut                                     ... 2.500e-12
   Tpresel                                  ... 2.500e-12 
Coulomb Range Separation                    ... NOT USED
Exchange Range Separation                   ... NOT USED
Multipole approximations                    ... NOT USED
Finite Nucleus Model                        ... NOT USED
CABS basis                                  ... NOT available
Auxiliary Coulomb fitting basis             ... AVAILABLE
   # of basis functions in Aux-J            ...    306
   # of shells in Aux-J                     ...    110
   Maximum angular momentum in Aux-J        ...      4
Auxiliary J/K fitting basis                 ... NOT available
Auxiliary Correlation fitting basis         ... NOT available
Auxiliary 'external' fitting basis          ... NOT available

Checking pre-screening integrals            ... done (  0.0 sec) Dimension = 54
   => SHARK Basis and OBASIS are compatible. Storing Pre-screening
Shell pair information
Shell pair cut-off parameter TPreSel        ...   2.5e-12
Total number of shell pairs                 ...      1485
Shell pairs after pre-screening             ...      1473
Total number of primitive shell pairs       ...      4933
Primitive shell pairs kept                  ...      4038
          la=0 lb=0:    525 shell pairs
          la=1 lb=0:    568 shell pairs
          la=1 lb=1:    170 shell pairs
          la=2 lb=0:    128 shell pairs
          la=2 lb=1:     72 shell pairs
          la=2 lb=2:     10 shell pairs

Checking whether 4 symmetric matrices of dimension 106 fit in memory
:Max Core in MB      =   4096.00
 MB in use           =      4.76
 MB left             =   4091.24
 MB needed           =      0.17
 Data fit in memory  = YES
Calculating RI/J V-Matrix + Cholesky decomp.... done (  0.0 sec)
Calculating Nuclear repulsion               ... done (  0.0 sec) ENN=    132.891841254820 Eh

Diagonalization of the overlap matrix:
Smallest eigenvalue                        ... 2.473e-03
Time for diagonalization                   ...    0.001 sec
Threshold for overlap eigenvalues          ... 1.000e-07
Number of eigenvalues below threshold      ... 0
Time for construction of square roots      ...    0.003 sec
Total time needed                          ...    0.006 sec

-------------------
DFT GRID GENERATION
-------------------

General Integration Accuracy     IntAcc      ... 4.388
Radial Grid Type                 RadialGrid  ... OptM3 with GC (2021)
Angular Grid (max. ang.)         AngularGrid ... 4 (Lebedev-302)
Angular grid pruning method      GridPruning ... 4 (adaptive)
Weight generation scheme         WeightScheme... mBecke (2022)
Basis function cutoff            BFCut       ... 1.0000e-11
Integration weight cutoff        WCut        ... 1.0000e-14
Partially contracted basis set               ... off
Rotationally invariant grid construction     ... off
Angular grids for H and He will be reduced by one unit

Total number of grid points                  ...    56289
Total number of batches                      ...      888
Average number of points per batch           ...       63
Average number of grid points per atom       ...     4021
Grids setup in   0.7 sec
Initializing property integral containers    ... done (  0.0 sec)

SHARK setup successfully completed in   0.8 seconds

Maximum memory used throughout the entire STARTUP-calculation: 21.9 MB
-------------------------------------------------------------------------------
                                 ORCA GUESS
                   Start orbitals & Density for SCF / CASSCF
-------------------------------------------------------------------------------

------------
SCF SETTINGS
------------
Hamiltonian:
 Density Functional     Method          .... DFT(GTOs)
 Exchange Functional    Exchange        .... PBE
   PBE kappa parameter   XKappa         ....  0.804000
   PBE mue parameter    XMuePBE         ....  0.219520
 Correlation Functional Correlation     .... PBE
   PBE beta parameter  CBetaPBE         ....  0.066725
 LDA part of GGA corr.  LDAOpt          .... PW91-LDA
 Gradients option       PostSCFGGA      .... off
   NL short-range parameter             ....  6.400000
 RI-approximation to the Coulomb term is turned on
   Number of AuxJ basis functions       .... 306


General Settings:
 Integral files         IntName         .... 003
 Hartree-Fock type      HFTyp           .... RHF
 Total Charge           Charge          ....    0
 Multiplicity           Mult            ....    1
 Number of Electrons    NEL             ....   34
 Basis Dimension        Dim             ....  106
 Nuclear Repulsion      ENuc            ....    132.8918412548 Eh

Convergence Acceleration:
 AO-DIIS                CNVDIIS         .... on
   Start iteration      DIISMaxIt       ....    12
   Startup error        DIISStart       ....  0.200000
   # of expansion vecs  DIISMaxEq       ....     5
   Bias factor          DIISBfac        ....   1.050
   Max. coefficient     DIISMaxC        ....  10.000
 MO-DIIS                CNVKDIIS        .... off
 Trust-Rad. Augm. Hess. CNVTRAH         .... auto
   Auto Start mean grad. ratio tolernc. ....  1.125000
   Auto Start start iteration           ....    50
   Auto Start num. interpolation iter.  ....    10
   Max. Number of Micro iterations      ....    24
   Max. Number of Macro iterations      .... Maxiter - #DIIS iter
   Number of Davidson start vectors     ....     2
   Converg. threshold    (grad. norm)   ....   1.000e-05
   Grad. Scal. Fac. for Micro threshold ....   0.100
   Minimum threshold for Micro iter.    ....   1.000e-02
   NR start threshold (gradient norm)   ....   1.000e-04
   Initial trust radius                 ....   0.400
   Minimum AH scaling param. (alpha)    ....   1.000
   Maximum AH scaling param. (alpha)    .... 1000.000
   Quad. conv. algorithm                .... NR
   White noise on init. David. guess    .... on
   Maximum white noise                  ....   0.010
   Pseudo random numbers                .... off
   Inactive MOs                         .... canonical
   Orbital update algorithm             .... Taylor
   Preconditioner                       .... Diag
   Full preconditioner red. dimension   ....   250
 SOSCF                 CNVSOSCF           .... on
   Start iteration     SOSCFMaxIt         ....   150
   Startup grad/error  SOSCFStart         ....  0.003300
   Hessian update      SOSCFHessUp        .... L-BFGS
   Autom. constraints  SOSCFAutoConstrain .... off
 Level Shifting         CNVShift        .... on
   Level shift para.    LevelShift      ....    0.2500
   Turn off err/grad.   ShiftErr        ....    0.0010
 Zerner damping         CNVZerner       .... off
 Static damping         CNVDamp         .... on
   Fraction old density DampFac         ....    0.7000
   Max. Damping (<1)    DampMax         ....    0.9800
   Min. Damping (>=0)   DampMin         ....    0.0000
   Turn off err/grad.   DampErr         ....    0.1000

SCF Procedure:
 Maximum # iterations   MaxIter         ....   125
 SCF integral mode      SCFMode         .... Direct
   Integral package                     .... SHARK and LIBINT hybrid scheme
 Reset frequency        DirectResetFreq ....    20
 Integral Threshold     Thresh          ....  2.500e-11 Eh
 Primitive CutOff       TCut            ....  2.500e-12 Eh

Convergence Tolerance:
 Convergence Check Mode ConvCheckMode   .... Total+1el-Energy
 Convergence forced     ConvForced      .... 0
 Energy Change          TolE            ....  1.000e-08 Eh
 1-El. energy change                    ....  1.000e-05 Eh
 Orbital Gradient       TolG            ....  1.000e-05
 Orbital Rotation angle TolX            ....  1.000e-05
 DIIS Error             TolErr          ....  5.000e-07

------------------------------
INITIAL GUESS: MODEL POTENTIAL
------------------------------
Loading Hartree-Fock densities                     ... done
Calculating cut-offs                               ... done
Initializing the effective Hamiltonian             ... done
Setting up the integral package (SHARK)            ... done
Starting the Coulomb interaction                   ... done (   0.1 sec)
Making the grid                                    ... done (   0.2 sec)
Mapping shells                                     ... done
Starting the XC term evaluation                    ... done (   0.3 sec)
  promolecular density results
     # of electrons  =     34.000735981
     EX              =    -23.397281753
     EC              =     -1.082158286
     EX+EC           =    -24.479440038
Transforming the Hamiltonian                       ... done (   0.0 sec)
Diagonalizing the Hamiltonian                      ... done (   0.0 sec)
Back transforming the eigenvectors                 ... done (   0.0 sec)
Now organizing SCF variables                       ... done
                      ------------------
                      INITIAL GUESS DONE (   0.7 sec)
                      ------------------
             **** ENERGY FILE WAS UPDATED (003.en.tmp) ****
Finished Guess after   0.7 sec
Maximum memory used throughout the entire GUESS-calculation: 8.3 MB

-------------------------------------------------------------------------------------------
                                      ORCA LEAN-SCF
                              memory conserving SCF solver
-------------------------------------------------------------------------------------------

----------------------------------------D-I-I-S--------------------------------------------
Iteration    Energy (Eh)           Delta-E    RMSDP     MaxDP     DIISErr   Damp  Time(sec)
-------------------------------------------------------------------------------------------
               ***  Starting incremental Fock matrix formation  ***
    1    -157.9412118779423508     0.00e+00  4.18e-03  7.31e-02  1.54e-01  0.700   0.8
    2    -158.0186150975169994    -7.74e-02  3.04e-03  4.11e-02  7.25e-02  0.700   0.7
                               ***Turning on AO-DIIS***
    3    -158.0449543340245668    -2.63e-02  1.24e-03  1.37e-02  1.94e-02  0.700   1.0
    4    -158.0603458123056271    -1.54e-02  1.83e-03  2.21e-02  6.97e-03  0.000   1.0
    5    -158.0955820710829585    -3.52e-02  5.20e-04  5.42e-03  7.02e-03  0.000   0.7
                              *** Initializing SOSCF ***
---------------------------------------S-O-S-C-F--------------------------------------
Iteration    Energy (Eh)           Delta-E    RMSDP     MaxDP     MaxGrad    Time(sec)
--------------------------------------------------------------------------------------
    6    -158.0959816683709960    -4.00e-04  2.02e-04  2.04e-03  1.68e-03     0.7
               *** Restarting incremental Fock matrix formation ***
    7    -158.0960140199549642    -3.24e-05  1.39e-04  1.25e-03  3.08e-04     1.0
    8    -158.0960143218391636    -3.02e-07  3.23e-05  6.75e-04  2.57e-04     1.2
    9    -158.0960167679372148    -2.45e-06  2.18e-05  2.30e-04  5.74e-05     0.7
   10    -158.0960168388555189    -7.09e-08  6.83e-06  7.27e-05  3.80e-05     0.7
   11    -158.0960168759801832    -3.71e-08  2.63e-06  3.12e-05  6.80e-06     0.6
   12    -158.0960168770473047    -1.07e-09  1.20e-06  1.35e-05  8.03e-06     0.9
                 **** Energy Check signals convergence ****

               *****************************************************
               *                     SUCCESS                       *
               *           SCF CONVERGED AFTER  12 CYCLES          *
               *****************************************************

             **** ENERGY FILE WAS UPDATED (003.en.tmp) ****

----------------
TOTAL SCF ENERGY
----------------

Total Energy       :       -158.09601687808703 Eh           -4302.01133 eV

Components:
Nuclear Repulsion  :        132.89184125481972 Eh            3616.17084 eV
Electronic Energy  :       -290.98785813290675 Eh           -7918.18217 eV
One Electron Energy:       -474.07976217105551 Eh          -12900.36617 eV
Two Electron Energy:        183.09190403814875 Eh            4982.18400 eV

Virial components:
Potential Energy   :       -314.27471920631160 Eh           -8551.84988 eV
Kinetic Energy     :        156.17870232822457 Eh            4249.83855 eV
Virial Ratio       :          2.01227641490985

DFT components:
N(Alpha)           :       16.999992115379 electrons
N(Beta)            :       16.999992115379 electrons
N(Total)           :       33.999984230757 electrons
E(X)               :      -24.085073640451 Eh       
E(C)               :       -1.093690932598 Eh       
E(XC)              :      -25.178764573048 Eh       

---------------
SCF CONVERGENCE
---------------

  Last Energy change         ...    1.0671e-09  Tolerance :   1.0000e-08
  Last MAX-Density change    ...    1.3472e-05  Tolerance :   1.0000e-07
  Last RMS-Density change    ...    1.2019e-06  Tolerance :   5.0000e-09
  Last DIIS Error            ...    1.6837e-03  Tolerance :   5.0000e-07
  Last Orbital Gradient      ...    8.0282e-06  Tolerance :   1.0000e-05
  Last Orbital Rotation      ...    6.2292e-06  Tolerance :   1.0000e-05


----------------
ORBITAL ENERGIES
----------------

  NO   OCC          E(Eh)            E(eV) 
   0   2.0000      -9.885706      -269.0037 
   1   2.0000      -9.885672      -269.0028 
   2   2.0000      -9.880581      -268.8643 
   3   2.0000      -9.880534      -268.8630 
   4   2.0000      -0.713687       -19.4204 
   5   2.0000      -0.642301       -17.4779 
   6   2.0000      -0.565935       -15.3999 
   7   2.0000      -0.497926       -13.5492 
   8   2.0000      -0.405791       -11.0421 
   9   2.0000      -0.403838       -10.9890 
  10   2.0000      -0.369161       -10.0454 
  11   2.0000      -0.336744        -9.1633 
  12   2.0000      -0.332800        -9.0559 
  13   2.0000      -0.313688        -8.5359 
  14   2.0000      -0.280422        -7.6307 
  15   2.0000      -0.277071        -7.5395 
  16   2.0000      -0.276344        -7.5197 
  17   0.0000       0.036538         0.9942 
  18   0.0000       0.072669         1.9774 
  19   0.0000       0.074962         2.0398 
  20   0.0000       0.082592         2.2474 
  21   0.0000       0.108429         2.9505 
  22   0.0000       0.123984         3.3738 
  23   0.0000       0.128142         3.4869 
  24   0.0000       0.128635         3.5003 
  25   0.0000       0.140680         3.8281 
  26   0.0000       0.154022         4.1912 
  27   0.0000       0.194521         5.2932 
*Only the first 10 virtual orbitals were printed.

                    ********************************
                    * MULLIKEN POPULATION ANALYSIS *
                    ********************************

-----------------------
MULLIKEN ATOMIC CHARGES
-----------------------
   0 C :   -0.038404
   1 C :   -0.046585
   2 C :   -0.046587
   3 C :   -0.038373
   4 H :    0.018466
   5 H :    0.020378
   6 H :    0.024225
   7 H :    0.010842
   8 H :    0.011069
   9 H :    0.011072
  10 H :    0.010843
  11 H :    0.024223
  12 H :    0.018479
  13 H :    0.020352
Sum of atomic charges:    0.0000000

--------------------------------
MULLIKEN REDUCED ORBITAL CHARGES
--------------------------------
  0 C s       :     3.007852  s :     3.007852
      pz      :     1.004785  p :     3.004596
      px      :     1.000792
      py      :     0.999020
      dz2     :     0.008157  d :     0.025956
      dxz     :     0.001830
      dyz     :     0.004121
      dx2y2   :     0.007775
      dxy     :     0.004072

  1 C s       :     3.032868  s :     3.032868
      pz      :     0.999358  p :     2.979297
      px      :     0.982974
      py      :     0.996964
      dz2     :     0.009455  d :     0.034421
      dxz     :     0.004790
      dyz     :     0.003949
      dx2y2   :     0.007502
      dxy     :     0.008724

  2 C s       :     3.032844  s :     3.032844
      pz      :     0.999275  p :     2.979322
      px      :     0.978924
      py      :     1.001123
      dz2     :     0.009415  d :     0.034421
      dxz     :     0.005077
      dyz     :     0.003699
      dx2y2   :     0.008505
      dxy     :     0.007725

  3 C s       :     3.007867  s :     3.007867
      pz      :     1.004941  p :     3.004550
      px      :     0.997507
      py      :     1.002102
      dz2     :     0.008106  d :     0.025955
      dxz     :     0.002017
      dyz     :     0.003988
      dx2y2   :     0.008208
      dxy     :     0.003637

  4 H s       :     0.958103  s :     0.958103
      pz      :     0.013175  p :     0.023431
      px      :     0.005442
      py      :     0.004814

  5 H s       :     0.956208  s :     0.956208
      pz      :     0.005619  p :     0.023414
      px      :     0.012886
      py      :     0.004909

  6 H s       :     0.952098  s :     0.952098
      pz      :     0.006492  p :     0.023677
      px      :     0.006664
      py      :     0.010521

  7 H s       :     0.966830  s :     0.966830
      pz      :     0.006037  p :     0.022327
      px      :     0.006250
      py      :     0.010040

  8 H s       :     0.966607  s :     0.966607
      pz      :     0.012981  p :     0.022324
      px      :     0.004451
      py      :     0.004892

  9 H s       :     0.966605  s :     0.966605
      pz      :     0.012984  p :     0.022323
      px      :     0.004373
      py      :     0.004967

 10 H s       :     0.966830  s :     0.966830
      pz      :     0.006074  p :     0.022327
      px      :     0.005335
      py      :     0.010918

 11 H s       :     0.952099  s :     0.952099
      pz      :     0.006536  p :     0.023678
      px      :     0.005898
      py      :     0.011244

 12 H s       :     0.958090  s :     0.958090
      pz      :     0.013173  p :     0.023431
      px      :     0.005288
      py      :     0.004970

 13 H s       :     0.956233  s :     0.956233
      pz      :     0.005622  p :     0.023414
      px      :     0.012567
      py      :     0.005225



                     *******************************
                     * LOEWDIN POPULATION ANALYSIS *
                     *******************************

----------------------
LOEWDIN ATOMIC CHARGES
----------------------
   0 C :   -0.070444
   1 C :   -0.049386
   2 C :   -0.049389
   3 C :   -0.070432
   4 H :    0.024242
   5 H :    0.027049
   6 H :    0.023163
   7 H :    0.023566
   8 H :    0.021811
   9 H :    0.021810
  10 H :    0.023565
  11 H :    0.023160
  12 H :    0.024243
  13 H :    0.027042

-------------------------------
LOEWDIN REDUCED ORBITAL CHARGES
-------------------------------
  0 C s       :     2.838855  s :     2.838855
      pz      :     1.060925  p :     3.161945
      px      :     1.055290
      py      :     1.045731
      dz2     :     0.021819  d :     0.069644
      dxz     :     0.004833
      dyz     :     0.011047
      dx2y2   :     0.020141
      dxy     :     0.011804

  1 C s       :     2.839243  s :     2.839243
      pz      :     1.055218  p :     3.122289
      px      :     1.025631
      py      :     1.041440
      dz2     :     0.025087  d :     0.087854
      dxz     :     0.010762
      dyz     :     0.010373
      dx2y2   :     0.020214
      dxy     :     0.021418

  2 C s       :     2.839244  s :     2.839244
      pz      :     1.055341  p :     3.122292
      px      :     1.022593
      py      :     1.044359
      dz2     :     0.025015  d :     0.087854
      dxz     :     0.011495
      dyz     :     0.009699
      dx2y2   :     0.022128
      dxy     :     0.019515

  3 C s       :     2.838858  s :     2.838858
      pz      :     1.061099  p :     3.161930
      px      :     1.050511
      py      :     1.050320
      dz2     :     0.021720  d :     0.069645
      dxz     :     0.005268
      dyz     :     0.010706
      dx2y2   :     0.020751
      dxy     :     0.011200

  4 H s       :     0.909704  s :     0.909704
      pz      :     0.039426  p :     0.066054
      px      :     0.013315
      py      :     0.013313

  5 H s       :     0.906887  s :     0.906887
      pz      :     0.013930  p :     0.066064
      px      :     0.038452
      py      :     0.013682

  6 H s       :     0.909965  s :     0.909965
      pz      :     0.016992  p :     0.066872
      px      :     0.017369
      py      :     0.032511

  7 H s       :     0.910221  s :     0.910221
      pz      :     0.015941  p :     0.066213
      px      :     0.019704
      py      :     0.030568

  8 H s       :     0.911942  s :     0.911942
      pz      :     0.039330  p :     0.066247
      px      :     0.013649
      py      :     0.013267

  9 H s       :     0.911943  s :     0.911943
      pz      :     0.039329  p :     0.066247
      px      :     0.013706
      py      :     0.013212

 10 H s       :     0.910221  s :     0.910221
      pz      :     0.016052  p :     0.066213
      px      :     0.016889
      py      :     0.033273

 11 H s       :     0.909968  s :     0.909968
      pz      :     0.017125  p :     0.066872
      px      :     0.015222
      py      :     0.034525

 12 H s       :     0.909703  s :     0.909703
      pz      :     0.039405  p :     0.066054
      px      :     0.013309
      py      :     0.013340

 13 H s       :     0.906894  s :     0.906894
      pz      :     0.013920  p :     0.066064
      px      :     0.037837
      py      :     0.014306



                      *****************************
                      * MAYER POPULATION ANALYSIS *
                      *****************************

  NA   - Mulliken gross atomic population
  ZA   - Total nuclear charge
  QA   - Mulliken gross atomic charge
  VA   - Mayer's total valence
  BVA  - Mayer's bonded valence
  FA   - Mayer's free valence

  ATOM       NA         ZA         QA         VA         BVA        FA
  0 C      6.0384     6.0000    -0.0384     4.0189     4.0189     0.0000
  1 C      6.0466     6.0000    -0.0466     4.1397     4.1397    -0.0000
  2 C      6.0466     6.0000    -0.0466     4.1396     4.1396     0.0000
  3 C      6.0384     6.0000    -0.0384     4.0189     4.0189    -0.0000
  4 H      0.9815     1.0000     0.0185     0.9899     0.9899     0.0000
  5 H      0.9796     1.0000     0.0204     0.9837     0.9837    -0.0000
  6 H      0.9758     1.0000     0.0242     0.9941     0.9941     0.0000
  7 H      0.9892     1.0000     0.0108     0.9730     0.9730    -0.0000
  8 H      0.9889     1.0000     0.0111     0.9778     0.9778     0.0000
  9 H      0.9889     1.0000     0.0111     0.9778     0.9778     0.0000
 10 H      0.9892     1.0000     0.0108     0.9730     0.9730     0.0000
 11 H      0.9758     1.0000     0.0242     0.9941     0.9941     0.0000
 12 H      0.9815     1.0000     0.0185     0.9899     0.9899    -0.0000
 13 H      0.9796     1.0000     0.0204     0.9837     0.9837    -0.0000

  Mayer bond orders larger than 0.100000
B(  0-C ,  1-C ) :   1.1156 B(  0-C ,  4-H ) :   0.9665 B(  0-C ,  5-H ) :   0.9610 
B(  0-C ,  6-H ) :   0.9664 B(  1-C ,  2-C ) :   1.1029 B(  1-C ,  7-H ) :   0.9382 
B(  1-C ,  8-H ) :   0.9402 B(  2-C ,  3-C ) :   1.1156 B(  2-C ,  9-H ) :   0.9402 
B(  2-C , 10-H ) :   0.9382 B(  3-C , 11-H ) :   0.9664 B(  3-C , 12-H ) :   0.9665 
B(  3-C , 13-H ) :   0.9610 

-------
TIMINGS
-------

Total SCF time: 0 days 0 hours 0 min 10 sec 

Total time                  ....      10.961 sec
Sum of individual times     ....      10.145 sec  ( 92.6%)

SCF preparation             ....       0.064 sec  (  0.6%)
Fock matrix formation       ....       9.680 sec  ( 88.3%)
  Startup                   ....       0.015 sec  (  0.2% of F)
  Split-RI-J                ....       1.757 sec  ( 18.2% of F)
  XC integration            ....       8.467 sec  ( 87.5% of F)
    Basis function eval.    ....       3.017 sec  ( 35.6% of XC)
    Density eval.           ....       1.607 sec  ( 19.0% of XC)
    XC-Functional eval.     ....       0.537 sec  (  6.3% of XC)
    XC-Potential eval.      ....       2.389 sec  ( 28.2% of XC)
Diagonalization             ....       0.000 sec  (  0.0%)
Density matrix formation    ....       0.145 sec  (  1.3%)
Total Energy calculation    ....       0.056 sec  (  0.5%)
Population analysis         ....       0.026 sec  (  0.2%)
Orbital Transformation      ....       0.014 sec  (  0.1%)
Orbital Orthonormalization  ....       0.000 sec  (  0.0%)
DIIS solution               ....       0.081 sec  (  0.7%)
SOSCF solution              ....       0.079 sec  (  0.7%)
Finished LeanSCF after  11.0 sec

Maximum memory used throughout the entire LEANSCF-calculation: 11.2 MB

------------------------------------------------------------------------------
                         ORCA PROPERTY INTEGRAL CALCULATIONS
------------------------------------------------------------------------------

GBWName                                   ... 003.gbw
Number of atoms                           ...     14
Number of basis functions                 ...    106
Max core memory                           ...   4096 MB

Dipole integrals                          ... YES
Quadrupole integrals                      ...  NO
Linear momentum integrals                 ...  NO
Angular momentum integrals                ...  NO
Higher moments length integrals           ...  NO
Higher moments velocity integrals         ...  NO
Kinetic energy integrals                  ...  NO
GIAO right hand sides                     ...  NO
GIAO dipole derivative integrals          ...  NO
SOC integrals                             ...  NO
EPR diamagnetic integrals (GIAO)          ...  NO
EPR gauge integrals                       ...  NO
Field gradient integrals                  ...  NO (   0 nuclei)
Spin-dipole/Fermi contact integrals       ...  NO (   0 nuclei)
Contact density integrals                 ...  NO (   0 nuclei)
Nucleus-orbit integrals                   ...  NO (   0 nuclei)
Geometric perturbations                   ...  NO (  14 nuclei)

Choice of electric origin   ... Center of mass
Position of electric origin ... ( -0.0087, -0.1115, -0.3979) 
Choice of magnetic origin   ... GIAO
Position of magnetic origin ... (  0.0000,  0.0000,  0.0000) 

Calculating integrals                     ... Electric Dipole (Length)     done (  0.0 sec)

Property integrals calculated in   0.0 sec

Maximum memory used throughout the entire PROPINT-calculation: 8.0 MB

-------------------------   --------------------
FINAL SINGLE POINT ENERGY      -158.096016878087
-------------------------   --------------------

------------------------------------------------------------------------------
                         ORCA SCF GRADIENT CALCULATION
------------------------------------------------------------------------------

Nuc. rep. gradient        (SHARK) ... done (  0.0 sec)
HCore & Overlap gradient  (SHARK) ... done (  0.1 sec)
Split-RIJ-J gradient      (SHARK) ... done (  0.6 sec)
XC gradient                       ... done (  4.6 sec)

------------------
CARTESIAN GRADIENT
------------------

   1   C   :    0.000851783    0.005473807    0.005252414
   2   C   :   -0.004249922   -0.003366232   -0.010475358
   3   C   :    0.003652071   -0.004099728    0.010460188
   4   C   :    0.000040495    0.005598403   -0.005203753
   5   H   :   -0.000844789   -0.001366618   -0.009954951
   6   H   :    0.009459149   -0.002069787    0.000680339
   7   H   :   -0.002984729   -0.009143381    0.002263212
   8   H   :    0.004970369    0.008619140   -0.001545714
   9   H   :    0.000480460    0.001281688    0.010432804
  10   H   :   -0.000279429    0.001414858   -0.010424994
  11   H   :   -0.003582669    0.009274530    0.001607636
  12   H   :    0.001529691   -0.009493961   -0.002343378
  13   H   :    0.000620771   -0.001552401    0.009948673
  14   H   :   -0.009663250   -0.000570319   -0.000697119

Difference to translation invariance:
           :    0.0000000000   -0.0000000000   -0.0000000000

Difference to rotation invariance:
           :    0.0000380648    0.0001295173   -0.0001279550

Norm of the Cartesian gradient     ...    0.0375119769
RMS gradient                       ...    0.0057882237
MAX gradient                       ...    0.0104753582

-------
TIMINGS
-------

Total SCF gradient time     ....        5.296 sec

Densities                   ....       0.001 sec  (  0.0%)
One electron gradient       ....       0.129 sec  (  2.4%)
RI-J Coulomb gradient       ....       0.588 sec  ( 11.1%)
XC gradient                 ....       4.578 sec  ( 86.4%)

Maximum memory used throughout the entire SCFGRAD-calculation: 14.9 MB
------------------------------------------------------------------------------
                         ORCA GEOMETRY RELAXATION STEP
------------------------------------------------------------------------------

Reading the OPT-File                    .... done
Getting information on internals        .... done
Copying old internal coords+grads       .... done
Making the new internal coordinates     .... (2022 redundants) done
Validating the new internal coordinates .... (2022 redundants) done
Calculating the B-matrix                .... done
Calculating the G,G- and P matrices     .... done
Transforming gradient to internals      .... done
Projecting the internal gradient        .... done
Number of atoms                         ....  14
Number of internal coordinates          ....  55
Current Energy                          ....  -158.096016878 Eh
Current gradient norm                   ....     0.037511977 Eh/bohr
Maximum allowed component of the step   ....  0.300
Current trust radius                    ....  0.300
Evaluating the initial hessian          ....  (Almloef) done
Projecting the Hessian                  .... done
Forming the augmented Hessian           .... done
Diagonalizing the augmented Hessian     .... done
Last element of RFO vector              ....  0.993692586
Lowest eigenvalues of augmented Hessian:
 -0.003819808  0.011225345  0.011871241  0.011889044  0.084445424
Length of the computed step             ....  0.112850298
The final length of the internal step   ....  0.112850298
Converting the step to Cartesian space:
 Initial RMS(Int)=    0.0152167311
Transforming coordinates:
 Iter   0:  RMS(Cart)=    0.0324498557 RMS(Int)=    0.0152254304
done
Storing new coordinates                 .... done

                                .--------------------.
          ----------------------|Geometry convergence|-------------------------
          Item                value                   Tolerance       Converged
          ---------------------------------------------------------------------
          RMS gradient        0.0049053119            0.0001000000      NO
          MAX gradient        0.0104104598            0.0003000000      NO
          RMS step            0.0152167311            0.0020000000      NO
          MAX step            0.0292619020            0.0040000000      NO
          -------------------------------------------------------------------------
          ........................................................
          Max(Bonds)      0.0155      Max(Angles)    0.89
          Max(Dihed)        1.18      Max(Improp)    0.00
          ---------------------------------------------------------------------

The optimization has not yet converged - more geometry cycles are needed


    ---------------------------------------------------------------------------
                         Redundant Internal Coordinates
                            (Angstroem and degrees)

        Definition                    Value    dE/dq     Step     New-Value
    ----------------------------------------------------------------------------
     1. B(C   1,C   0)                1.5209 -0.009295  0.0126    1.5335   
     2. B(C   2,C   1)                1.5290 -0.006704  0.0094    1.5383   
     3. B(C   3,C   2)                1.5209 -0.009256  0.0126    1.5335   
     4. B(H   4,C   0)                1.0946 -0.010023  0.0148    1.1094   
     5. B(H   5,C   0)                1.0948 -0.009373  0.0139    1.1086   
     6. B(H   6,C   0)                1.0939 -0.009702  0.0143    1.1082   
     7. B(H   7,C   1)                1.0965 -0.009890  0.0147    1.1113   
     8. B(H   8,C   1)                1.0962 -0.010409  0.0155    1.1117   
     9. B(H   9,C   2)                1.0962 -0.010410  0.0155    1.1117   
    10. B(H  10,C   2)                1.0965 -0.009893  0.0147    1.1113   
    11. B(H  11,C   3)                1.0939 -0.009716  0.0143    1.1083   
    12. B(H  12,C   3)                1.0946 -0.010027  0.0148    1.1094   
    13. B(H  13,C   3)                1.0948 -0.009374  0.0139    1.1086   
    14. A(H   4,C   0,H   6)          108.47  0.001841   -0.48    107.99   
    15. A(H   4,C   0,H   5)          108.02  0.001723   -0.28    107.74   
    16. A(H   5,C   0,H   6)          107.61  0.001970   -0.26    107.36   
    17. A(C   1,C   0,H   4)          111.04 -0.000395    0.04    111.08   
    18. A(C   1,C   0,H   5)          110.06 -0.003281    0.66    110.71   
    19. A(C   1,C   0,H   6)          111.51 -0.001620    0.28    111.79   
    20. A(H   7,C   1,H   8)          106.80  0.000686   -0.60    106.20   
    21. A(C   2,C   1,H   8)          109.90  0.002142   -0.55    109.35   
    22. A(C   0,C   1,H   8)          109.41  0.000344   -0.03    109.38   
    23. A(C   2,C   1,H   7)          108.50  0.000722    0.09    108.59   
    24. A(C   0,C   1,C   2)          113.46 -0.004383    0.89    114.35   
    25. A(C   0,C   1,H   7)          108.54  0.000764    0.13    108.67   
    26. A(C   3,C   2,H   9)          109.41  0.000261   -0.04    109.36   
    27. A(C   1,C   2,H   9)          109.90  0.003178   -0.62    109.29   
    28. A(H   9,C   2,H  10)          106.80  0.001649   -0.61    106.19   
    29. A(C   3,C   2,H  10)          108.54 -0.000910    0.19    108.74   
    30. A(C   1,C   2,H  10)          108.50  0.000974    0.11    108.61   
    31. A(C   1,C   2,C   3)          113.46 -0.004823    0.89    114.35   
    32. A(H  12,C   3,H  13)          108.02  0.001796   -0.25    107.77   
    33. A(H  11,C   3,H  13)          107.61  0.002023   -0.29    107.32   
    34. A(C   2,C   3,H  13)          110.06 -0.003194    0.65    110.71   
    35. A(H  11,C   3,H  12)          108.47  0.001705   -0.47    108.00   
    36. A(C   2,C   3,H  12)          111.04 -0.000422    0.05    111.10   
    37. A(C   2,C   3,H  11)          111.51 -0.001666    0.27    111.78   
    38. D(H   7,C   1,C   0,H   5)    -54.26 -0.000703   -0.11    -54.37   
    39. D(C   2,C   1,C   0,H   4)    -55.39  0.000448   -0.79    -56.18   
    40. D(H   7,C   1,C   0,H   6)   -173.60  0.000026   -0.40   -174.01   
    41. D(C   2,C   1,C   0,H   6)     65.71  0.001411   -1.18     64.52   
    42. D(C   2,C   1,C   0,H   5)   -174.95  0.000682   -0.89   -175.84   
    43. D(H   7,C   1,C   0,H   4)     65.30 -0.000936   -0.01     65.29   
    44. D(C   3,C   2,C   1,C   0)    -65.30  0.000286    0.03    -65.27   
    45. D(H   9,C   2,C   1,H   8)   -179.61 -0.001481    0.32   -179.29   
    46. D(H   9,C   2,C   1,H   7)    -63.17  0.000940   -0.66    -63.83   
    47. D(H   9,C   2,C   1,C   0)     57.55 -0.000419    0.14     57.69   
    48. D(C   3,C   2,C   1,H   8)     57.55 -0.000776    0.20     57.75   
    49. D(C   3,C   2,C   1,H   7)    173.99  0.001645   -0.77    173.22   
    50. D(H  11,C   3,C   2,H  10)   -173.60 -0.000855   -0.25   -173.85   
    51. D(H  11,C   3,C   2,H   9)    -57.41  0.000747   -0.89    -58.30   
    52. D(H  11,C   3,C   2,C   1)     65.71  0.001673   -1.10     64.61   
    53. D(H  12,C   3,C   2,H  10)     65.30 -0.001594    0.13     65.43   
    54. D(H  12,C   3,C   2,H   9)   -178.51  0.000009   -0.51   -179.02   
    55. D(H  12,C   3,C   2,C   1)    -55.39  0.000934   -0.72    -56.11   
    ----------------------------------------------------------------------------

Geometry step timings:
Preparation and reading OPT file:      0.000 s ( 0.000 %)
Internal coordinates            :      0.000 s ( 0.000 %)
B/P matrices and projection     :      0.001 s (11.111 %)
Hessian update/contruction      :      0.004 s (44.444 %)
Making the step                 :      0.001 s (11.111 %)
Converting the step to Cartesian:      0.000 s ( 0.000 %)
Storing new data                :      0.001 s (11.111 %)
Checking convergence            :      0.000 s ( 0.000 %)
Final printing                  :      0.002 s (22.222 %)
Total time                      :      0.009 s

Time for energy+gradient        :     18.569 s
Time for complete geometry iter :     18.708 s

         *************************************************************
         *                GEOMETRY OPTIMIZATION CYCLE   2            *
         *************************************************************
---------------------------------
CARTESIAN COORDINATES (ANGSTROEM)
---------------------------------
  C     -1.490123    0.626492    0.211744
  C     -0.799121   -0.605451   -0.385360
  C      0.695443   -0.723538   -0.040765
  C      1.569764    0.390526   -0.628953
  H     -1.371102    0.655534    1.314338
  H     -2.576188    0.613079   -0.010461
  H     -1.079711    1.569193   -0.201844
  H     -1.319718   -1.516984   -0.020674
  H     -0.923036   -0.598642   -1.490127
  H      0.817083   -0.743113    1.064104
  H      1.068241   -1.702782   -0.410928
  H      1.311404    1.382106   -0.206764
  H      1.456629    0.447065   -1.731106
  H      2.640435    0.206514   -0.407820

----------------------------
CARTESIAN COORDINATES (A.U.)
----------------------------
  NO LB      ZA    FRAG     MASS         X           Y           Z
   0 C     6.0000    0    12.011   -2.815925    1.183898    0.400138
   1 C     6.0000    0    12.011   -1.510120   -1.144137   -0.728225
   2 C     6.0000    0    12.011    1.314197   -1.367288   -0.077035
   3 C     6.0000    0    12.011    2.966424    0.737987   -1.188550
   4 H     1.0000    0     1.008   -2.591007    1.238780    2.483739
   5 H     1.0000    0     1.008   -4.868289    1.158552   -0.019768
   6 H     1.0000    0     1.008   -2.040358    2.965345   -0.381430
   7 H     1.0000    0     1.008   -2.493906   -2.866683   -0.039069
   8 H     1.0000    0     1.008   -1.744285   -1.131269   -2.815932
   9 H     1.0000    0     1.008    1.544063   -1.404280    2.010865
  10 H     1.0000    0     1.008    2.018683   -3.217792   -0.776542
  11 H     1.0000    0     1.008    2.478194    2.611803   -0.390726
  12 H     1.0000    0     1.008    2.752629    0.844831   -3.271316
  13 H     1.0000    0     1.008    4.989699    0.390254   -0.770667

--------------------------------
INTERNAL COORDINATES (ANGSTROEM)
--------------------------------
 C      0   0   0     0.000000000000     0.00000000     0.00000000
 C      1   0   0     1.533525725981     0.00000000     0.00000000
 C      2   1   0     1.538314779980   114.34485991     0.00000000
 C      3   2   1     1.533473158695   114.34634002   294.73441129
 H      1   2   3     1.109380125544   111.08009712   303.81768043
 H      1   2   3     1.108643558383   110.71137586   184.16315037
 H      1   2   3     1.108232242059   111.78774215    64.52275573
 H      2   1   3     1.111263943431   108.66784102   121.47056729
 H      2   1   3     1.111715767858   109.37730948   236.99677004
 H      3   2   1     1.111717448010   109.28602958    57.68779468
 H      3   2   1     1.111269049259   108.59979536   173.11997588
 H      4   3   2     1.108253512960   111.77590131    64.60965489
 H      4   3   2     1.109385493246   111.09688267   303.88717063
 H      4   3   2     1.108646671233   110.70377955   184.18986902

---------------------------
INTERNAL COORDINATES (A.U.)
---------------------------
 C      0   0   0     0.000000000000     0.00000000     0.00000000
 C      1   0   0     2.897943641426     0.00000000     0.00000000
 C      2   1   0     2.906993641925   114.34485991     0.00000000
 C      3   2   1     2.897844303653   114.34634002   294.73441129
 H      1   2   3     2.096424615693   111.08009712   303.81768043
 H      1   2   3     2.095032705479   110.71137586   184.16315037
 H      1   2   3     2.094255430273   111.78774215    64.52275573
 H      2   1   3     2.099984515587   108.66784102   121.47056729
 H      2   1   3     2.100838340013   109.37730948   236.99677004
 H      3   2   1     2.100841515041   109.28602958    57.68779468
 H      3   2   1     2.099994164203   108.59979536   173.11997588
 H      4   3   2     2.094295626451   111.77590131    64.60965489
 H      4   3   2     2.096434759181   111.09688267   303.88717063
 H      4   3   2     2.095038587914   110.70377955   184.18986902

------------------------------------------------------------------------------
                   ___                                                        
                  /   \      - P O W E R E D   B Y -                         
                 /     \                                                     
                 |  |  |   _    _      __       _____    __    __             
                 |  |  |  | |  | |    /  \     |  _  \  |  |  /  |          
                  \  \/   | |  | |   /    \    | | | |  |  | /  /          
                 / \  \   | |__| |  /  /\  \   | |_| |  |  |/  /          
                |  |  |   |  __  | /  /__\  \  |    /   |      \           
                |  |  |   | |  | | |   __   |  |    \   |  |\   \          
                \     /   | |  | | |  |  |  |  | |\  \  |  | \   \       
                 \___/    |_|  |_| |__|  |__|  |_| \__\ |__|  \__/        
                                                                              
                      - O R C A' S   B I G   F R I E N D -                    
                                      &                                       
                       - I N T E G R A L  F E E D E R -                       
                                                                              
 v1 FN, 2020, v2 2021, v3 2022-2024                                           
------------------------------------------------------------------------------


----------------------
SHARK INTEGRAL PACKAGE
----------------------

Number of atoms                             ...     14
Number of basis functions                   ...    106
Number of shells                            ...     54
Maximum angular momentum                    ...      2
Integral batch strategy                     ... SHARK/LIBINT Hybrid
RI-J (if used) integral strategy            ... SPLIT-RIJ (Revised 2003 algorithm where possible)
Printlevel                                  ...      1
Contraction scheme used                     ... SEGMENTED contraction
Prescreening option                         ... SCHWARTZ
   Thresh                                   ... 2.500e-11
   Tcut                                     ... 2.500e-12
   Tpresel                                  ... 2.500e-12 
Coulomb Range Separation                    ... NOT USED
Exchange Range Separation                   ... NOT USED
Multipole approximations                    ... NOT USED
Finite Nucleus Model                        ... NOT USED
CABS basis                                  ... NOT available
Auxiliary Coulomb fitting basis             ... AVAILABLE
   # of basis functions in Aux-J            ...    306
   # of shells in Aux-J                     ...    110
   Maximum angular momentum in Aux-J        ...      4
Auxiliary J/K fitting basis                 ... NOT available
Auxiliary Correlation fitting basis         ... NOT available
Auxiliary 'external' fitting basis          ... NOT available

Checking pre-screening integrals            ... done (  0.0 sec) Dimension = 54
   => SHARK Basis and OBASIS are compatible. Storing Pre-screening
Shell pair information
Shell pair cut-off parameter TPreSel        ...   2.5e-12
Total number of shell pairs                 ...      1485
Shell pairs after pre-screening             ...      1473
Total number of primitive shell pairs       ...      4933
Primitive shell pairs kept                  ...      4020
          la=0 lb=0:    525 shell pairs
          la=1 lb=0:    568 shell pairs
          la=1 lb=1:    170 shell pairs
          la=2 lb=0:    128 shell pairs
          la=2 lb=1:     72 shell pairs
          la=2 lb=2:     10 shell pairs

Checking whether 4 symmetric matrices of dimension 106 fit in memory
:Max Core in MB      =   4096.00
 MB in use           =      4.84
 MB left             =   4091.16
 MB needed           =      0.17
 Data fit in memory  = YES
Calculating RI/J V-Matrix + Cholesky decomp.... done (  0.0 sec)
Calculating Nuclear repulsion               ... done (  0.0 sec) ENN=    131.376861192513 Eh

Diagonalization of the overlap matrix:
Smallest eigenvalue                        ... 2.649e-03
Time for diagonalization                   ...    0.002 sec
Threshold for overlap eigenvalues          ... 1.000e-07
Number of eigenvalues below threshold      ... 0
Time for construction of square roots      ...    0.002 sec
Total time needed                          ...    0.005 sec

-------------------
DFT GRID GENERATION
-------------------

General Integration Accuracy     IntAcc      ... 4.388
Radial Grid Type                 RadialGrid  ... OptM3 with GC (2021)
Angular Grid (max. ang.)         AngularGrid ... 4 (Lebedev-302)
Angular grid pruning method      GridPruning ... 4 (adaptive)
Weight generation scheme         WeightScheme... mBecke (2022)
Basis function cutoff            BFCut       ... 1.0000e-11
Integration weight cutoff        WCut        ... 1.0000e-14
Partially contracted basis set               ... off
Rotationally invariant grid construction     ... off
Angular grids for H and He will be reduced by one unit

Total number of grid points                  ...    56339
Total number of batches                      ...      889
Average number of points per batch           ...       63
Average number of grid points per atom       ...     4024
Grids setup in   0.5 sec
Initializing property integral containers    ... done (  0.0 sec)

SHARK setup successfully completed in   0.6 seconds

Maximum memory used throughout the entire STARTUP-calculation: 22.0 MB
Occupation numbers will be reassigned to an Aufbau configuration
             **** ENERGY FILE WAS UPDATED (003.en.tmp) ****
Finished Guess after   0.1 sec
Maximum memory used throughout the entire GUESS-calculation: 7.9 MB
----------------------------------------D-I-I-S--------------------------------------------
Iteration    Energy (Eh)           Delta-E    RMSDP     MaxDP     DIISErr   Damp  Time(sec)
-------------------------------------------------------------------------------------------
               ***  Starting incremental Fock matrix formation  ***
    1    -158.0976633024040439     0.00e+00  2.11e-04  3.71e-03  4.77e-03  0.700   1.1
                              *** Initializing SOSCF ***
---------------------------------------S-O-S-C-F--------------------------------------
Iteration    Energy (Eh)           Delta-E    RMSDP     MaxDP     MaxGrad    Time(sec)
--------------------------------------------------------------------------------------
    2    -158.0977966701660762    -1.33e-04  5.86e-04  1.00e-02  2.89e-03     0.7
               *** Restarting incremental Fock matrix formation ***
    3    -158.0980662325752633    -2.70e-04  2.35e-04  3.79e-03  8.42e-04     0.8
    4    -158.0980441199281472     2.21e-05  1.34e-04  2.10e-03  1.11e-03     1.0
    5    -158.0980851684957997    -4.10e-05  1.75e-05  1.86e-04  7.54e-05     0.8
    6    -158.0980852222104431    -5.37e-08  7.84e-06  8.18e-05  5.50e-05     0.6
    7    -158.0980853111620377    -8.90e-08  3.72e-06  5.71e-05  1.52e-05     0.8
    8    -158.0980853113053968    -1.43e-10  2.22e-06  2.79e-05  1.22e-05     0.8
                 **** Energy Check signals convergence ****

               *****************************************************
               *                     SUCCESS                       *
               *           SCF CONVERGED AFTER   8 CYCLES          *
               *****************************************************

             **** ENERGY FILE WAS UPDATED (003.en.tmp) ****

----------------
TOTAL SCF ENERGY
----------------

Total Energy       :       -158.09808531887575 Eh           -4302.06761 eV

Components:
Nuclear Repulsion  :        131.37686119251345 Eh            3574.94614 eV
Electronic Energy  :       -289.47494651138913 Eh           -7877.01375 eV
One Electron Energy:       -471.11348040128553 Eh          -12819.64954 eV
Two Electron Energy:        181.63853388989637 Eh            4942.63579 eV

Virial components:
Potential Energy   :       -314.04210695225083 Eh           -8545.52018 eV
Kinetic Energy     :        155.94402163337512 Eh            4243.45256 eV
Virial Ratio       :          2.01381305716589

DFT components:
N(Alpha)           :       16.999998033996 electrons
N(Beta)            :       16.999998033996 electrons
N(Total)           :       33.999996067993 electrons
E(X)               :      -24.023404204676 Eh       
E(C)               :       -1.089803227424 Eh       
E(XC)              :      -25.113207432100 Eh       

---------------
SCF CONVERGENCE
---------------

  Last Energy change         ...    1.4336e-10  Tolerance :   1.0000e-08
  Last MAX-Density change    ...    2.7907e-05  Tolerance :   1.0000e-07
  Last RMS-Density change    ...    2.2195e-06  Tolerance :   5.0000e-09
  Last DIIS Error            ...    2.8947e-03  Tolerance :   5.0000e-07
  Last Orbital Gradient      ...    1.2186e-05  Tolerance :   1.0000e-05
  Last Orbital Rotation      ...    1.2974e-05  Tolerance :   1.0000e-05


Total SCF time: 0 days 0 hours 0 min 7 sec 
Finished LeanSCF after   8.0 sec

Maximum memory used throughout the entire LEANSCF-calculation: 11.3 MB

------------------------------------------------------------------------------
                         ORCA PROPERTY INTEGRAL CALCULATIONS
------------------------------------------------------------------------------

GBWName                                   ... 003.gbw
[...]
     25       0.107938  -0.113453   0.010091  -0.013832   0.002744   0.001348
     26      -0.032661   0.037194  -0.612106   0.541957  -0.050124   0.025673
     27       0.114239   0.101423   0.070033   0.049147  -0.007117  -0.003758
     28      -0.127795  -0.132643  -0.004399   0.001755  -0.001351   0.002036
     29      -0.033542  -0.038471   0.659765   0.485136  -0.048416  -0.026876
     30       0.055372   0.085196   0.102343   0.145157  -0.024114   0.006361
     31      -0.027375  -0.010130  -0.270979  -0.401303   0.058822  -0.017641
     32       0.161302   0.164268  -0.113784  -0.161115   0.023614  -0.007742
     33       0.193117   0.284894   0.005423  -0.013884  -0.105169   0.096079
     34      -0.091521  -0.059972  -0.012584   0.053344   0.353477  -0.322082
     35       0.398422   0.353090  -0.003874   0.023085   0.146744  -0.133717
     36       0.121698   0.070650   0.000559  -0.006981  -0.043144   0.043459
     37      -0.391122  -0.331013   0.001640  -0.000264   0.009247  -0.009674
     38      -0.036680  -0.029726  -0.026643  -0.074745  -0.461973   0.462556
     39       0.031824   0.031213  -0.043895   0.005598   0.360555  -0.342863
     40       0.243890   0.329845   0.010685  -0.000092  -0.063390   0.058575
     41      -0.048472   0.012280  -0.011724   0.001438   0.086492  -0.082404
                 36         37         38         39         40         41    
      0       0.003007  -0.002005  -0.005949   0.023203   0.058537   0.054544
      1       0.008905  -0.009082   0.027493  -0.021992   0.027523   0.034702
      2      -0.007041   0.012596  -0.054510   0.058737   0.007341  -0.007604
      3      -0.022264   0.015160   0.002978  -0.001571   0.002631   0.003860
      4      -0.044144   0.034236   0.007115  -0.004780   0.004777   0.006509
      5       0.039186  -0.051696  -0.013417   0.009669  -0.001522  -0.003662
      6       0.015081   0.009906   0.001953   0.000737   0.001848  -0.002782
      7      -0.046436  -0.036383  -0.007868  -0.004540  -0.005012   0.006910
      8      -0.038841  -0.052302  -0.014203  -0.008845  -0.001356   0.003541
      9      -0.001626  -0.000672  -0.010996  -0.024272   0.054162  -0.048661
     10       0.009099   0.009281  -0.027560  -0.016667  -0.035923   0.042228
     11       0.007069   0.012851  -0.058704  -0.054958   0.008443   0.007020
     12       0.005736  -0.012988   0.044183  -0.045988   0.001160   0.012476
     13       0.002178  -0.000172   0.008082  -0.006471   0.004970   0.006811
     14       0.049547  -0.102113   0.488559  -0.528375  -0.107092   0.021314
     15       0.004696  -0.020133   0.186393  -0.360137  -0.550324  -0.472379
     16       0.001101  -0.003465   0.006623  -0.005119   0.004377   0.004931
     17      -0.002578   0.000515   0.031903  -0.070949  -0.126519  -0.111478
     18      -0.050399   0.055725  -0.161515   0.133205  -0.149283  -0.191760
     19      -0.104444   0.115560  -0.339726   0.272373  -0.338454  -0.429218
     20       0.043091  -0.046467   0.132244  -0.103598   0.145066   0.179971
     21       0.296588  -0.234219  -0.048063   0.030533  -0.029299  -0.040962
     22       0.526073  -0.413962  -0.086735   0.057505  -0.053920  -0.074117
     23      -0.204336   0.159993   0.034636  -0.021818   0.020250   0.028423
     24      -0.034369   0.054626   0.014744  -0.006208  -0.001130   0.001270
     25      -0.004418   0.000288   0.000494  -0.000026  -0.000408   0.000145
     26      -0.274834   0.453916   0.122224  -0.085365  -0.001084   0.017064
     27       0.032291   0.053777   0.014819   0.005109  -0.001168  -0.001047
     28      -0.011572  -0.012195  -0.003784  -0.001358   0.000607   0.000429
     29       0.268285   0.455614   0.128348   0.077148  -0.002817  -0.015544
     30      -0.209691  -0.169761  -0.036050  -0.019511  -0.020129   0.028518
     31       0.559941   0.451164   0.098657   0.056720   0.056363  -0.078157
     32       0.206746   0.165717   0.037389   0.020467   0.020182  -0.028518
     33       0.033115   0.037419  -0.114264  -0.083847  -0.092980   0.121019
     34      -0.109101  -0.123415   0.384399   0.271305   0.349764  -0.446023
     35      -0.043274  -0.047721   0.144146   0.099417   0.145207  -0.180876
     36      -0.005249  -0.012926   0.045008   0.041059  -0.000487  -0.010606
     37       0.003435   0.003029  -0.019822  -0.016348  -0.003910   0.008557
     38      -0.049842  -0.104302   0.524151   0.492684  -0.118689  -0.014069
     39      -0.003574  -0.018300   0.197883   0.328457  -0.552607   0.470526
     40       0.001600   0.006375  -0.038419  -0.056873   0.083495  -0.069932
     41       0.002746   0.000840   0.034525   0.065542  -0.128274   0.112109


-----------
IR SPECTRUM
-----------

 Mode   freq       eps      Int      T**2         TX        TY        TZ
       cm**-1   L/(mol*cm) km/mol    a.u.
----------------------------------------------------------------------------
  6:    115.77   0.000002    0.01  0.000006  ( 0.000111  0.002357  0.000008)
  7:    217.83   0.000016    0.08  0.000024  ( 0.004680 -0.000375 -0.001238)
  8:    243.67   0.000005    0.02  0.000006  ( 0.000184  0.002405 -0.000009)
  9:    320.74   0.000005    0.02  0.000004  (-0.000140 -0.002089  0.000025)
 10:    423.85   0.000115    0.58  0.000085  (-0.008300  0.000667 -0.003954)
 11:    727.81   0.001058    5.35  0.000454  (-0.013274  0.000930  0.016634)
 12:    773.93   0.000450    2.28  0.000182  ( 0.001010  0.013437  0.000073)
 13:    819.46   0.000001    0.00  0.000000  ( 0.000018  0.000444  0.000010)
 14:    933.06   0.000581    2.93  0.000194  (-0.010664  0.000889 -0.008926)
 15:    958.81   0.000428    2.16  0.000139  ( 0.011409 -0.001964  0.002276)
 16:    958.91   0.000096    0.49  0.000031  (-0.002707 -0.004877 -0.000495)
 17:   1079.21   0.000007    0.04  0.000002  (-0.000124 -0.001444 -0.000016)
 18:   1110.47   0.000649    3.28  0.000182  (-0.013338  0.001064 -0.001852)
 19:   1142.81   0.000004    0.02  0.000001  ( 0.000099  0.000996  0.000015)
 20:   1234.54   0.000180    0.91  0.000045  (-0.006583  0.000512 -0.001347)
 21:   1260.99   0.000036    0.18  0.000009  (-0.000258 -0.002954 -0.000002)
 22:   1307.10   0.000599    3.03  0.000143  ( 0.011763 -0.000907 -0.001980)
 23:   1326.36   0.000100    0.50  0.000023  ( 0.000355  0.004828  0.000033)
 24:   1347.19   0.000476    2.40  0.000110  ( 0.000857  0.010464  0.000030)
 25:   1354.27   0.001704    8.61  0.000393  ( 0.018415 -0.001369 -0.007193)
 26:   1404.92   0.000124    0.62  0.000027  ( 0.004738 -0.000371 -0.002205)
 27:   1409.97   0.000015    0.08  0.000003  ( 0.000244  0.001825 -0.000115)
 28:   1418.50   0.001612    8.14  0.000355  (-0.000878  0.000111  0.018808)
 29:   1426.55   0.001103    5.58  0.000241  (-0.001204 -0.015489  0.000038)
 30:   1428.23   0.001879    9.49  0.000411  ( 0.017337 -0.001379  0.010395)
 31:   1432.60   0.000002    0.01  0.000001  (-0.000032 -0.000707  0.000076)
 32:   2953.53   0.003880   19.61  0.000410  ( 0.000878  0.020211 -0.000844)
 33:   2954.21   0.005990   30.27  0.000633  (-0.015741  0.000348 -0.019617)
 34:   2964.38   0.004580   23.15  0.000482  (-0.013860  0.000486  0.017024)
 35:   2966.51   0.004622   23.36  0.000486  ( 0.001429  0.021998  0.000494)
 36:   2998.41   0.004700   23.75  0.000489  (-0.001743 -0.022048  0.000084)
 37:   3002.04   0.004809   24.30  0.000500  ( 0.007226 -0.000658 -0.021148)
 38:   3048.23   0.010528   53.20  0.001078  (-0.002476 -0.000237 -0.032735)
 39:   3049.01   0.001366    6.90  0.000140  (-0.000498 -0.011765  0.001077)
 40:   3055.59   0.007891   39.88  0.000806  ( 0.028201 -0.002060  0.002522)
 41:   3058.59   0.003981   20.12  0.000406  ( 0.001572  0.020092 -0.000139)

* The epsilon (eps) is given for a Dirac delta lineshape.
** The dipole moment derivative (T) already includes vibrational overlap.

The first frequency considered to be a vibration is 6
The total number of vibrations considered is 36


--------------------------
THERMOCHEMISTRY AT 298.15K
--------------------------

Temperature         ...   298.15 K
Pressure            ...     1.00 atm
Total Mass          ...    58.12 AMU
Quasi RRHO          ...     True
Cut-Off Frequency   ...     1.00 cm^-1

Throughout the following assumptions are being made:
  (1) The electronic state is orbitally nondegenerate
  (2) There are no thermally accessible electronically excited states
  (3) Hindered rotations indicated by low frequency modes are not
      treated as such but are treated as vibrations and this may
      cause some error
  (4) All equations used are the standard statistical mechanics
      equations for an ideal gas
  (5) All vibrations are strictly harmonic

freq.     115.77  E(vib)   ...       0.44 
freq.     217.83  E(vib)   ...       0.33 
freq.     243.67  E(vib)   ...       0.31 
freq.     320.74  E(vib)   ...       0.25 
freq.     423.85  E(vib)   ...       0.18 
freq.     727.81  E(vib)   ...       0.06 
freq.     773.93  E(vib)   ...       0.05 
freq.     819.46  E(vib)   ...       0.05 
freq.     933.06  E(vib)   ...       0.03 
freq.     958.81  E(vib)   ...       0.03 
freq.     958.91  E(vib)   ...       0.03 
freq.    1079.21  E(vib)   ...       0.02 
freq.    1110.47  E(vib)   ...       0.02 
freq.    1142.81  E(vib)   ...       0.01 
freq.    1234.54  E(vib)   ...       0.01 
freq.    1260.99  E(vib)   ...       0.01 
freq.    1307.10  E(vib)   ...       0.01 
freq.    1326.36  E(vib)   ...       0.01 
freq.    1347.19  E(vib)   ...       0.01 
freq.    1354.27  E(vib)   ...       0.01 
freq.    1404.92  E(vib)   ...       0.00 
freq.    1409.97  E(vib)   ...       0.00 
freq.    1418.50  E(vib)   ...       0.00 
freq.    1426.55  E(vib)   ...       0.00 
freq.    1428.23  E(vib)   ...       0.00 
freq.    1432.60  E(vib)   ...       0.00 
freq.    2953.53  E(vib)   ...       0.00 
freq.    2954.21  E(vib)   ...       0.00 
freq.    2964.38  E(vib)   ...       0.00 
freq.    2966.51  E(vib)   ...       0.00 
freq.    2998.41  E(vib)   ...       0.00 
freq.    3002.04  E(vib)   ...       0.00 
freq.    3048.23  E(vib)   ...       0.00 
freq.    3049.01  E(vib)   ...       0.00 
freq.    3055.59  E(vib)   ...       0.00 
freq.    3058.59  E(vib)   ...       0.00 

------------
INNER ENERGY
------------

The inner energy is: U= E(el) + E(ZPE) + E(vib) + E(rot) + E(trans)
    E(el)   - is the total energy from the electronic structure calculation
              = E(kin-el) + E(nuc-el) + E(el-el) + E(nuc-nuc)
    E(ZPE)  - the the zero temperature vibrational energy from the frequency calculation
    E(vib)  - the the finite temperature correction to E(ZPE) due to population
              of excited vibrational states
    E(rot)  - is the rotational thermal energy
    E(trans)- is the translational thermal energy

Summary of contributions to the inner energy U:
Electronic energy                ...   -158.09820345 Eh
Zero point energy                ...      0.12809691 Eh      80.38 kcal/mol
Thermal vibrational correction   ...      0.00299070 Eh       1.88 kcal/mol
Thermal rotational correction    ...      0.00141627 Eh       0.89 kcal/mol
Thermal translational correction ...      0.00141627 Eh       0.89 kcal/mol
-----------------------------------------------------------------------
Total thermal energy                   -157.96428330 Eh


Summary of corrections to the electronic energy:
(perhaps to be used in another calculation)
Total thermal correction                  0.00582324 Eh       3.65 kcal/mol
Non-thermal (ZPE) correction              0.12809691 Eh      80.38 kcal/mol
-----------------------------------------------------------------------
Total correction                          0.13392015 Eh      84.04 kcal/mol


--------
ENTHALPY
--------

The enthalpy is H = U + kB*T
                kB is Boltzmann's constant
Total thermal energy              ...   -157.96428330 Eh 
Thermal Enthalpy correction       ...      0.00094421 Eh       0.59 kcal/mol
-----------------------------------------------------------------------
Total Enthalpy                    ...   -157.96333909 Eh


Note: Only C1 symmetry has been detected, increase convergence thresholds 
      if your molecule has a higher symmetry. Symmetry factor of 1.0 is   
      used for the rotational entropy correction. 
 

Note: Rotational entropy computed according to Herzberg 
Infrared and Raman Spectra, Chapter V,1, Van Nostrand Reinhold, 1945 
Point Group:  C1, Symmetry Number:   1  
Rotational constants in cm-1:     0.441451     0.154836     0.132670 

Vibrational entropy computed according to the QRRHO of S. Grimme
Chem.Eur.J. 2012 18 9955 using a reference frequency of 100.0 cm-1


-------
ENTROPY
-------

The entropy contributions are T*S = T*(S(el)+S(vib)+S(rot)+S(trans))
     S(el)   - electronic entropy
     S(vib)  - vibrational entropy
     S(rot)  - rotational entropy
     S(trans)- translational entropy
The entropies will be listed as multiplied by the temperature to get
units of energy

Electronic entropy                ...      0.00000000 Eh      0.00 kcal/mol
Vibrational entropy               ...      0.00496091 Eh      3.11 kcal/mol
Rotational entropy                ...      0.01173104 Eh      7.36 kcal/mol
Translational entropy             ...      0.01810279 Eh     11.36 kcal/mol
-----------------------------------------------------------------------
Final entropy term                ...      0.03479473 Eh     21.83 kcal/mol

In case the symmetry of your molecule has not been determined correctly
or in case you have a reason to use a different symmetry number we print 
out the resulting rotational entropy values for sn=1,12:

 non-linear molecules -----------------------------------
|  sn= 1 | S(rot)=       0.01173104 Eh      7.36 kcal/mol|
|  sn= 2 | S(rot)=       0.01107658 Eh      6.95 kcal/mol|
|  sn= 3 | S(rot)=       0.01069375 Eh      6.71 kcal/mol|
|  sn= 4 | S(rot)=       0.01042212 Eh      6.54 kcal/mol|
|  sn= 5 | S(rot)=       0.01021144 Eh      6.41 kcal/mol|
|  sn= 6 | S(rot)=       0.01003929 Eh      6.30 kcal/mol|
|  sn= 7 | S(rot)=       0.00989375 Eh      6.21 kcal/mol|
|  sn= 8 | S(rot)=       0.00976767 Eh      6.13 kcal/mol|
|  sn= 9 | S(rot)=       0.00965646 Eh      6.06 kcal/mol|
|  sn=10 | S(rot)=       0.00955698 Eh      6.00 kcal/mol|
|  sn=11 | S(rot)=       0.00946699 Eh      5.94 kcal/mol|
|  sn=12 | S(rot)=       0.00938484 Eh      5.89 kcal/mol|
 linear molecules ---------------------------------------
|  Dinfh | S(rot)=       0.00723295 Eh      4.54 kcal/mol|
|  Cinfv | S(rot)=       0.00788740 Eh      4.95 kcal/mol|
 --------------------------------------------------------


-------------------
GIBBS FREE ENERGY
-------------------

The Gibbs free energy is G = H - T*S

Total enthalpy                    ...   -157.96333909 Eh 
Total entropy correction          ...     -0.03479473 Eh    -21.83 kcal/mol
-----------------------------------------------------------------------
Final Gibbs free energy         ...   -157.99813382 Eh

For completeness - the Gibbs free energy minus the electronic energy
G-E(el)                           ...      0.10006963 Eh     62.79 kcal/mol


Maximum memory used throughout the entire PROP-calculation: 23.2 MB

--------------------------------
SUGGESTED CITATIONS FOR THIS RUN
--------------------------------

Below you find a list of papers that are relevant to this ORCA run
We neither can nor want to force you to cite these papers, but we appreciate if you do
You receive ORCA, which is the product of decades of hard work by many enthusiastic individuals, for free
The only thing we kindly ask in return is that you cite our papers,
We deeply appreciate it, if you show your appreciation for ORCA by not just citing the generic ORCA reference.

Please note that relegating all ORCA citations to the supporting information does *not* help us.
SI sections are not indexed - citations you put there will not count into any citation statistics
But we need these citations in order to attract the funding resources that allow us to do what we are doing

Therefore, if you are a happy ORCA user, please consider citing a few of the papers listed below in the main body of your paper

In addition to the list printed below, the program has created the file 003.bibtex that contains the list in bibtex format
You can import this file easily into all common literature databanks and citation aid programs


List of essential papers. We consider these as the minimum necessary citations

  1. Neese, F.
     Software update: the ORCA program system, version 6.0
     WIRES Comput. Molec. Sci. 2025 15(1), e70019
     doi.org/10.1002/wcms.7019

List of papers to cite with high priority. The work reported in these papers was absolutely
necessary for this run to complete.
Our perspective: the developers of density functionals and basis sets usually get cited in chemistry papers
Good! But without the algorithms to do something with them, the functionals or basis sets would not do anything.
Hence, in our opinion, the algorithm design and method developments papers are equally worthy of getting cited

  1. Neese, F.
     An improvement of the resolution of the identity approximation for the formation of the Coulomb matrix
     J. Comp. Chem. 2003 24(14), 1740-1747
     doi.org/10.1002/jcc.10318
  2. Bykov, D.; Petrenko, T.; Izsak, R.; Kossmann, S.; Becker, U.; Valeev, E.; Neese, F.
     Efficient implementation of the analytic second derivatives of Hartree-Fock and hybrid DFT energies: a detailed analysis of different approximations
     Molec. Phys. 2015 113 , 1961-1977
     doi.org/10.1080/00268976.2015.1025114
  3. Neese, F.
     The SHARK Integral Generation and Digestion System
     J. Comp. Chem. 2022 44(3), 381
     doi.org/10.1002/jcc.26942

List of suggested additional citations. These are papers that are important in the 'surrounding' of 
of this run, or papers that preceded the highly important papers. If you like your results we are grateful for a citation.

  1. Neese, F.
     The ORCA program system
     WIRES Comput. Molec. Sci. 2012 2(1), 73-78
     doi.org/10.1002/wcms.81
  2. Neese, F.
     Software update: the ORCA program system, version 4.0
     WIRES Comput. Molec. Sci. 2018 8(1), 1-6
     doi.org/10.1002/wcms.1327
  3. Neese, F.; Wennmohs, F.; Becker, U.; Riplinger, C.
     The ORCA quantum chemistry program package
     J. Chem. Phys. 2020 152(22), 224108
     doi.org/10.1063/5.0004608
  4. Neese, F.
     Software update: The ORCA program system—Version 5.0
     WIRES Comput. Molec. Sci. 2022 12(1), e1606
     doi.org/10.1002/wcms.1606

List of optional additional citations

  1. Neese, F.
     Approximate second-order SCF convergence for spin unrestricted wavefunctions
     Chem. Phys. Lett. 2000 325(1-3), 93-98
     doi.org/10.1016/s0009-2614(00)00662-x

Timings for individual modules:

Sum of individual times          ...      159.406 sec (=   2.657 min)
Startup calculation              ...        4.864 sec (=   0.081 min)   3.1 %
SCF iterations                   ...       39.834 sec (=   0.664 min)  25.0 %
Property integrals               ...       37.291 sec (=   0.622 min)  23.4 %
SCF Response                     ...       17.706 sec (=   0.295 min)  11.1 %
Property calculations            ...       33.586 sec (=   0.560 min)  21.1 %
SCF Gradient evaluation          ...       26.066 sec (=   0.434 min)  16.4 %
Geometry relaxation              ...        0.059 sec (=   0.001 min)   0.0 %
                             ****ORCA TERMINATED NORMALLY****
TOTAL RUN TIME: 0 days 0 hours 2 minutes 40 seconds 459 msec
