
                                 *****************
                                 * O   R   C   A *
                                 *****************

                                            #,                                       
                                            ###                                      
                                            ####                                     
                                            #####                                    
                                            ######                                   
                                           ########,                                 
                                     ,,################,,,,,                         
                               ,,#################################,,                 
                          ,,##########################################,,             
                       ,#########################################, ''#####,          
                    ,#############################################,,   '####,        
                  ,##################################################,,,,####,       
                ,###########''''           ''''###############################       
              ,#####''   ,,,,##########,,,,          '''####'''          '####       
            ,##' ,,,,###########################,,,                        '##       
           ' ,,###''''                  '''############,,,                           
         ,,##''                                '''############,,,,        ,,,,,,###''
      ,#''                                            '''#######################'''  
     '                                                          ''''####''''         
             ,#######,   #######,   ,#######,      ##                                
            ,#'     '#,  ##    ##  ,#'     '#,    #''#        ,####,    ,#,          
            ##       ##  ##   ,#'  ##            #'  '#       #'       ,# #          
            ##       ##  #######   ##           ,######,      #####,      #          
            '#,     ,#'  ##    ##  '#,     ,#' ,#      #,     #,   #      #          
             '#######'   ##     ##  '#######'  #'      '#     '####' #    #          



                #########################################################
                #                        -***-                          #
                #          Department of theory and spectroscopy        #
                #                                                       #
                #                      Frank Neese                      #
                #                                                       #
                #     Directorship, Architecture, Infrastructure        #
                #                    SHARK, DRIVERS                     #
                #        Core code/Algorithms in most modules           #
                #                                                       #
                #        Max Planck Institute fuer Kohlenforschung      #
                #                Kaiser Wilhelm Platz 1                 #
                #                 D-45470 Muelheim/Ruhr                 #
                #                      Germany                          #
                #                                                       #
                #                  All rights reserved                  #
                #                        -***-                          #
                #########################################################


                         Program Version 6.1.0  -  RELEASE   -


 With contributions from (in alphabetic order):
[Max-Planck-Institut fuer Kohlenforschung]                               
  Daniel Aravena         : Magnetic Suceptibility                        
  Michael Atanasov       : Ab Initio Ligand Field Theory (pilot matlab implementation)
  Alexander A. Auer      : GIAO ZORA, VPT2 properties, NMR spectrum      
  Ute Becker             : All parallelization in ORCA, NUMFREQ, NUMCALC 
  Giovanni Bistoni       : ED, misc. LED, open-shell LED, HFLD           
  Dmytro Bykov           : pre 5.0 version of the SCF Hessian            
  Marcos Casanova-Páez   : Triplet and SCS-CIS(D). UHF-(DLPNO)-IP/EA/STEOM-CCSD. UHF-CVS-IP/STEOM-CCSD   
  Vijay G. Chilkuri      : MRCI spin determinant printing, contributions to CSF-ICE 
  Pauline Colinet        : FMM embedding                                 
  Dipayan Datta          : RHF DLPNO-CCSD density                        
  Achintya Kumar Dutta   : EOM-CC, STEOM-CC                              
  Nicolas Foglia         : Exact transition moments, OPA infrastructure, MCD improvements    
  Dmitry Ganyushin       : Spin-Orbit,Spin-Spin,Magnetic field MRCI      
  Miquel Garcia-Rates    : C-PCM and meta-GGA Hessian, CCSD/C-PCM, Gaussian charge scheme 
  Tiago L. C. Gouveia    : GS-ROHF, GS-ROCIS                             
  Yang Guo               : DLPNO-NEVPT2, F12-NEVPT2, CIM, IAO-localization        
  Andreas Hansen         : Spin unrestricted coupled pair/coupled cluster methods 
  Ingolf Harden          : AUTO-CI MPn and infrastructure                
  Benjamin Helmich-Paris : MC-RPA, TRAH-(SCF,CASSCF), AVAS, COSX integrals, SCF dyn. polar., MC-PDFT, srDFT 
  Lee Huntington         : MR-EOM, pCC                                   
  Robert Izsak           : Overlap fitted RIJCOSX, COSX-SCS-MP3, EOM     
  Riya Kayal             : Wick's Theorem for AUTO-CI, AUTO-CI UHF-CCSDT 
  Emily Kempfer          : AUTO-CI RHF CISDT and CCSDT, approximate NEVPT4
  Christian Kollmar      : KDIIS, OOCD, Brueckner-CCSD(T), CCSD density, CASPT2, CASPT2-K, improved NEVPT2 
  Axel Koslowski         : Symmetry handling                             
  Simone Kossmann        : meta-GGA functionals, TD-DFT gradient, OOMP2, (MP2 Hessian; deprecated post 5.0) 
  Lucas Lang             : DCDCAS, Hyperfine gauge corrections, ICE-SOC+SSC
  Marvin Lechner         : AUTO-CI (C++ implementation), FIC-MRCC        
  Spencer Leger          : CASSCF response                               
  Dagmar Lenk            : GEPOL surface, SMD, ORCA-2-JSON               
  Dimitrios Liakos       : Extrapolation schemes; Compound Job, Property file
  Dimitrios Manganas     : Further ROCIS development; embedding schemes. LFT, Crystal Embedding 
  Dimitrios Pantazis     : SARC Basis sets                               
  Anastasios Papadopoulos: AUTO-CI, single reference methods and gradients 
  Taras Petrenko         : pre 6.0 DFT Hessian and TD-DFT gradient,  ECA, NRVS 
  Petra Pikulova         : Analytic Raman intensities                    
  Peter Pinski           : DLPNO-MP2, DLPNO-MP2 Gradient                 
  Shashank Vittal Rao    : ES-AILFT, MagRelax                            
  Christoph Reimann      : Effective Core Potentials                     
  Marius Retegan         : Local ZFS, SOC                                
  Christoph Riplinger    : Optimizer, TS searches, QM/MM, DLPNO-CCSD(T), (RO)-DLPNO pert. Triples 
  Michael Roemelt        : Original ROCIS implementation, recursive CI coupling coefficients
  Masaaki Saitow         : Open-shell DLPNO-CCSD energy and density      
  Barbara Sandhoefer     : DKH picture change effects                    
  Yorick L. A. Schmerwitz: GMF and freeze-and-release deltaSCF, NEB S-IDPP initial path                    
  Kantharuban Sivalingam : CASSCF convergence/infrastructure, NEVPT2, NEVPT3, NEVPT4(SD), FIC-MRCI and CEPA variants
  Bernardo de Souza      : ESD, SOC TD-DFT                               
  Georgi L. Stoychev     : AutoAux, RI-MP2 NMR, DLPNO-MP2 response, X2C  
  Van Anh Tran           : RI-MP2 g-tensors                              
  Willem Van den Heuvel  : Paramagnetic NMR                              
  Zikuan Wang            : NOTCH, Electric field optimization            
  Frank Wennmohs         : Technical directorship and infrastructure     
  Hang Xu                : AUTO-CI-Response properties                   
                                                                         
[FACCTs GmbH]                                                            
  Markus Bursch, Nicolas Foglia, Miquel Garcia-Rates, Ingolf Harden, Hagen Neugebauer, Anastasios Papadopoulos, 
  Christoph Riplinger, Bernardo de Souza, Georgi L. Stoychev                                                    
                                                                 
  APM, various basis sets, CI-OPT, improved COSX, DLPNO-Multilevel,           
  DOCKER, DRACO, updates on ESD, Fragmentator, GOAT, IRC, LR-CPCM, L-BFGS, MBIS, meta-GGA TD-DFT gradient, ML-optimized integration grids, 
  MM, NACMEs, nearIR, NEB, NEB-TS, NL-DFT gradient (VV10), 2- and 3-layer-ONIOM, interface openCOSMO-RS, QMMM,   
  Crystal-QMMM, RESP, rigid body optimization, SF, symmetry and pop. for TD-DFT, various functionals, SOLVATOR                                   
                                                                         
[Other institutions]                                                     
  V. Asgeirsson          : NEB                                           
  Christoph Bannwarth    : sTDA-DFT, sTD-DFT, PBEh-3c, B97-3c, D3        
  Giovanni Bistoni       : ETS/NOCV, ADLD/ADEX, COVALED                  
  Martin Brehm           : Molecular dynamics                            
  Ronald Cardenas        : ETS/NOCV                                      
  Martina Colucci        : COVALED                                       
  Sebastian Ehlert       : rSCAN, r2SCAN, r2SCAN-3c, D4, dhf basis sets  
  Marvin Friede          : D4 for Fr, Ra, Ac-Lr                          
  Lars Goerigk           : TD-DFT with DH, B97 family of functionals     
  Stefan Grimme          : VdW corrections, initial TS optimization, DFT functionals, gCP, sTDA/sTD-DF 
  Waldemar Hujo          : DFT-NL                                        
  H. Jonsson             : NEB                                           
  Holger Kruse           : gCP                                           
  Marcel Mueller         : wB97X-3c, vDZP basis set                      
  Hagen Neugebauer       : wr2SCAN, Native XTB                           
  Gianluca Regni         : ADLD/ADEX                                     
  Tobias Risthaus        : pre 6.0 range-separated hybrid DFT and stability analysis
  Lukas Wittmann         : regularized MP2, r2SCAN double-hybrids, wr2SCAN        
                                                                         
We gratefully acknowledge several colleagues who have allowed us to      
interface, adapt or use parts of their codes:                            
  Ed Valeev, F. Pavosevic, A. Kumar             : LibInt (2-el integral package), F12 methods 
  Garnet Chan, S. Sharma, J. Yang, R. Olivares  : DMRG                   
  Ulf Ekstrom                                   : XCFun DFT Library      
  Mihaly Kallay                                 : mrcc  (arbitrary order and MRCC methods)
  Frank Weinhold                                : gennbo (NPA and NBO analysis)           
  Simon Mueller                                 : openCOSMO-RS                            
  Christopher J. Cramer and Donald G. Truhlar   : smd solvation model                     
  S Lehtola, MJT Oliveira, MAL Marques          : LibXC Library                           
  Liviu Ungur et al                             : ANISO software                          


 Your calculation uses the libint2 library for the computation of 2-el integrals
 For citations please refer to: http://libint.valeyev.net

 Your ORCA version has been built with support for libXC version: 7.0.0
 For citations please refer to: https://libxc.gitlab.io

 This ORCA versions uses:
   CBLAS   interface :  Fast vector & matrix operations
   LAPACKE interface :  Fast linear algebra routines
   Shared memory     :  Shared parallel matrices


  ***********************************
  * Starting time: Thu Dec 25 20:49:47 2025
  * Host name:     FREDDY-YOGA
  * Process ID:    7388
  * Working dir.:  c:\Users\SellIT\Desktop\Coding\IR_ORCA_pipeline\orca_inputs\002
  ***********************************

Warning: RI is on but no J-basis has been assigned. Assigning Def2/J (nothing to worry about!)
================================================================================

----- Orbital basis set information -----
Your calculation utilizes the basis: def2-SVP
   F. Weigend and R. Ahlrichs, Phys. Chem. Chem. Phys. 7, 3297 (2005).

----- AuxJ basis set information -----
Your calculation utilizes the auxiliary basis: def2/J
   H-Rn: F. Weigend, Phys. Chem. Chem. Phys. 8, 1057 (2006).
   Fr-Lr: K. Eichkorn, F. Weigend, O. Treutler, R. Ahlrichs; Theor. Chem. Acc. 97, 119 (1997).

================================================================================
                                        WARNINGS
                       Please study these warnings very carefully!
================================================================================



WARNING: Found flag for RIJCOSX approximation but no HF exchange needed!
  ===> : RIJCOSX  will be disabled and Split-RI-J is turned on

WARNING: Geometry Optimization
  ===> : Switching off AutoStart
         For restart on a previous wavefunction, please use MOREAD

================================================================================
                                       INPUT FILE
================================================================================
NAME = 002.inp
|  1> ! PBE def2-SVP Opt Freq RIJCOSX
|  2> 
|  3> * xyz 0 1
|  4> C      1.072540   -0.494205   -0.547981
|  5> C      0.177546    0.586268    0.035056
|  6> C     -1.206528    0.051772    0.362200
|  7> H      1.200207   -1.321099    0.157964
|  8> H      0.650091   -0.895820   -1.474615
|  9> H      2.062115   -0.085387   -0.774934
| 10> H      0.637209    0.989307    0.944274
| 11> H      0.090088    1.412273   -0.679419
| 12> H     -1.150896   -0.757865    1.096912
| 13> H     -1.831363    0.847341    0.779988
| 14> H     -1.701010   -0.332586   -0.535667
| 15> *
| 16> 
| 17>                          ****END OF INPUT****
================================================================================

                       *****************************
                       * Geometry Optimization Run *
                       *****************************

Geometry optimization settings:
Update method            Update   .... BFGS
Choice of coordinates    CoordSys .... (2022) Redundant Internals
Initial Hessian          InHess   .... Almloef's Model
Max. no of cycles        MaxIter  .... 50

Convergence Tolerances:
Energy Change            TolE     ....  5.0000e-06 Eh
Max. Gradient            TolMAXG  ....  3.0000e-04 Eh/bohr
RMS Gradient             TolRMSG  ....  1.0000e-04 Eh/bohr
Max. Displacement        TolMAXD  ....  4.0000e-03 bohr
RMS Displacement         TolRMSD  ....  2.0000e-03 bohr
Strict Convergence                .... False

------------------------------------------------------------------------------
                        ORCA OPTIMIZATION COORDINATE SETUP
------------------------------------------------------------------------------

The optimization will be done in redundant internal coordinates (2022)
Making redundant internal coordinates   ...  (2022 redundants) done
Evaluating the initial hessian          ...  (Almloef) done
Evaluating the coordinates              ...  done
Calculating the B-matrix                .... done
Calculating the G-matrix                .... done
The number of degrees of freedom        ....   40

    -----------------------------------------------------------------
                    Redundant Internal Coordinates


    -----------------------------------------------------------------
         Definition                    Initial Value    Approx d2E/dq
    -----------------------------------------------------------------
      1. B(C   1,C   0)                  1.5193         0.388507   
      2. B(C   2,C   1)                  1.5193         0.388506   
      3. B(H   3,C   0)                  1.0947         0.353910   
      4. B(H   4,C   0)                  1.0947         0.353912   
      5. B(H   5,C   0)                  1.0945         0.354215   
      6. B(H   6,C   1)                  1.0956         0.352727   
      7. B(H   7,C   1)                  1.0956         0.352727   
      8. B(H   8,C   2)                  1.0947         0.353912   
      9. B(H   9,C   2)                  1.0945         0.354217   
     10. B(H  10,C   2)                  1.0947         0.353912   
     11. A(H   3,C   0,H   5)          108.0845         0.289300   
     12. A(H   3,C   0,H   4)          108.2849         0.289262   
     13. A(C   1,C   0,H   4)          111.0020         0.325486   
     14. A(C   1,C   0,H   5)          110.2763         0.325532   
     15. A(H   4,C   0,H   5)          108.0845         0.289301   
     16. A(C   1,C   0,H   3)          111.0020         0.325486   
     17. A(H   6,C   1,H   7)          107.2966         0.288958   
     18. A(C   0,C   1,H   7)          109.4460         0.325306   
     19. A(C   0,C   1,C   2)          111.6587         0.368262   
     20. A(C   2,C   1,H   7)          109.4460         0.325306   
     21. A(C   0,C   1,H   6)          109.4460         0.325306   
     22. A(C   2,C   1,H   6)          109.4460         0.325306   
     23. A(H   8,C   2,H   9)          108.0845         0.289301   
     24. A(C   1,C   2,H   9)          110.2762         0.325532   
     25. A(C   1,C   2,H   8)          111.0020         0.325486   
     26. A(H   9,C   2,H  10)          108.0846         0.289301   
     27. A(H   8,C   2,H  10)          108.2849         0.289262   
     28. A(C   1,C   2,H  10)          111.0020         0.325486   
     29. D(H   6,C   1,C   0,H   4)   -178.4181         0.012004   
     30. D(H   6,C   1,C   0,H   3)     61.0935         0.012004   
     31. D(C   2,C   1,C   0,H   3)    -60.2443         0.012004   
     32. D(H   6,C   1,C   0,H   5)    -58.6623         0.012004   
     33. D(C   2,C   1,C   0,H   5)    180.0000         0.012004   
     34. D(C   2,C   1,C   0,H   4)     60.2441         0.012004   
     35. D(H   8,C   2,C   1,C   0)     60.2443         0.012004   
     36. D(H   9,C   2,C   1,H   7)    -58.6622         0.012004   
     37. D(H   9,C   2,C   1,H   6)     58.6622         0.012004   
     38. D(H   9,C   2,C   1,C   0)    180.0000         0.012004   
     39. D(H   8,C   2,C   1,H   7)   -178.4179         0.012004   
     40. D(H   8,C   2,C   1,H   6)    -61.0935         0.012004   
    -----------------------------------------------------------------

Number of atoms                         .... 11
Number of degrees of freedom            .... 40


         *************************************************************
         *                GEOMETRY OPTIMIZATION CYCLE   1            *
         *************************************************************
---------------------------------
CARTESIAN COORDINATES (ANGSTROEM)
---------------------------------
  C      1.072540   -0.494205   -0.547981
  C      0.177546    0.586268    0.035056
  C     -1.206528    0.051772    0.362200
  H      1.200207   -1.321099    0.157964
  H      0.650091   -0.895820   -1.474615
  H      2.062115   -0.085387   -0.774934
  H      0.637209    0.989307    0.944274
  H      0.090088    1.412273   -0.679419
  H     -1.150896   -0.757865    1.096912
  H     -1.831363    0.847341    0.779988
  H     -1.701010   -0.332586   -0.535667

----------------------------
CARTESIAN COORDINATES (A.U.)
----------------------------
  NO LB      ZA    FRAG     MASS         X           Y           Z
   0 C     6.0000    0    12.011    2.026807   -0.933912   -1.035534
   1 C     6.0000    0    12.011    0.335513    1.107886    0.066246
   2 C     6.0000    0    12.011   -2.280007    0.097835    0.684459
   3 H     1.0000    0     1.008    2.268063   -2.496515    0.298509
   4 H     1.0000    0     1.008    1.228494   -1.692854   -2.786619
   5 H     1.0000    0     1.008    3.896833   -0.161358   -1.464413
   6 H     1.0000    0     1.008    1.204151    1.869519    1.784419
   7 H     1.0000    0     1.008    0.170242    2.668809   -1.283916
   8 H     1.0000    0     1.008   -2.174878   -1.432157    2.072863
   9 H     1.0000    0     1.008   -3.460775    1.601242    1.473964
  10 H     1.0000    0     1.008   -3.214443   -0.628496   -1.012264

--------------------------------
INTERNAL COORDINATES (ANGSTROEM)
--------------------------------
 C      0   0   0     0.000000000000     0.00000000     0.00000000
 C      1   0   0     1.519331532989     0.00000000     0.00000000
 C      2   1   0     1.519332092805   111.65871868     0.00000000
 H      1   2   3     1.094719549999   111.00196246   299.75566024
 H      1   2   3     1.094718381951   111.00202158    60.24414273
 H      1   2   3     1.094485496458   110.27628125   179.99995280
 H      2   1   3     1.095631270371   109.44600151   121.33779187
 H      2   1   3     1.095631182202   109.44601261   238.66223959
 H      3   2   1     1.094718554761   111.00196589    60.24429412
 H      3   2   1     1.094484181672   110.27620316   179.99997992
 H      3   2   1     1.094718534682   111.00197130   299.75583600

---------------------------
INTERNAL COORDINATES (A.U.)
---------------------------
 C      0   0   0     0.000000000000     0.00000000     0.00000000
 C      1   0   0     2.871120503980     0.00000000     0.00000000
 C      2   1   0     2.871121561879   111.65871868     0.00000000
 H      1   2   3     2.068720142948   111.00196246   299.75566024
 H      1   2   3     2.068717935657   111.00202158    60.24414273
 H      1   2   3     2.068277845855   110.27628125   179.99995280
 H      2   1   3     2.070443044761   109.44600151   121.33779187
 H      2   1   3     2.070442878147   109.44601261   238.66223959
 H      3   2   1     2.068718262219   111.00196589    60.24429412
 H      3   2   1     2.068275361269   110.27620316   179.99997992
 H      3   2   1     2.068718224277   111.00197130   299.75583600

---------------------
BASIS SET INFORMATION
---------------------
There are 2 groups of distinct atoms

 Group   1 Type C   : 7s4p1d contracted to 3s2p1d pattern {511/31/1}
 Group   2 Type H   : 4s1p contracted to 2s1p pattern {31/1}

Atom   0C    basis set group =>   1
Atom   1C    basis set group =>   1
Atom   2C    basis set group =>   1
Atom   3H    basis set group =>   2
Atom   4H    basis set group =>   2
Atom   5H    basis set group =>   2
Atom   6H    basis set group =>   2
Atom   7H    basis set group =>   2
Atom   8H    basis set group =>   2
Atom   9H    basis set group =>   2
Atom  10H    basis set group =>   2
---------------------------------
AUXILIARY/J BASIS SET INFORMATION
---------------------------------
There are 2 groups of distinct atoms

 Group   1 Type C   : 12s5p4d2f1g contracted to 6s4p3d1f1g pattern {711111/2111/211/2/1}
 Group   2 Type H   : 5s2p1d contracted to 3s1p1d pattern {311/2/1}

Atom   0C    basis set group =>   1
Atom   1C    basis set group =>   1
Atom   2C    basis set group =>   1
Atom   3H    basis set group =>   2
Atom   4H    basis set group =>   2
Atom   5H    basis set group =>   2
Atom   6H    basis set group =>   2
Atom   7H    basis set group =>   2
Atom   8H    basis set group =>   2
Atom   9H    basis set group =>   2
Atom  10H    basis set group =>   2
------------------------------------------------------------------------------
                             ORCA STARTUP CALCULATIONS
                           -- RI-GTO INTEGRALS CHOSEN --
------------------------------------------------------------------------------
------------------------------------------------------------------------------
                   ___                                                        
                  /   \      - P O W E R E D   B Y -                         
                 /     \                                                     
                 |  |  |   _    _      __       _____    __    __             
                 |  |  |  | |  | |    /  \     |  _  \  |  |  /  |          
                  \  \/   | |  | |   /    \    | | | |  |  | /  /          
                 / \  \   | |__| |  /  /\  \   | |_| |  |  |/  /          
                |  |  |   |  __  | /  /__\  \  |    /   |      \           
                |  |  |   | |  | | |   __   |  |    \   |  |\   \          
                \     /   | |  | | |  |  |  |  | |\  \  |  | \   \       
                 \___/    |_|  |_| |__|  |__|  |_| \__\ |__|  \__/        
                                                                              
                      - O R C A' S   B I G   F R I E N D -                    
                                      &                                       
                       - I N T E G R A L  F E E D E R -                       
                                                                              
 v1 FN, 2020, v2 2021, v3 2022-2024                                           
------------------------------------------------------------------------------


----------------------
SHARK INTEGRAL PACKAGE
----------------------

Number of atoms                             ...     11
Number of basis functions                   ...     82
Number of shells                            ...     42
Maximum angular momentum                    ...      2
Integral batch strategy                     ... SHARK/LIBINT Hybrid
RI-J (if used) integral strategy            ... SPLIT-RIJ (Revised 2003 algorithm where possible)
Printlevel                                  ...      1
Contraction scheme used                     ... SEGMENTED contraction
Prescreening option                         ... SCHWARTZ
   Thresh                                   ... 2.500e-11
   Tcut                                     ... 2.500e-12
   Tpresel                                  ... 2.500e-12 
Coulomb Range Separation                    ... NOT USED
Exchange Range Separation                   ... NOT USED
Multipole approximations                    ... NOT USED
Finite Nucleus Model                        ... NOT USED
CABS basis                                  ... NOT available
Auxiliary Coulomb fitting basis             ... AVAILABLE
   # of basis functions in Aux-J            ...    235
   # of shells in Aux-J                     ...     85
   Maximum angular momentum in Aux-J        ...      4
Auxiliary J/K fitting basis                 ... NOT available
Auxiliary Correlation fitting basis         ... NOT available
Auxiliary 'external' fitting basis          ... NOT available

Checking pre-screening integrals            ... done (  0.0 sec) Dimension = 42
   => SHARK Basis and OBASIS are compatible. Storing Pre-screening
Shell pair information
Shell pair cut-off parameter TPreSel        ...   2.5e-12
Total number of shell pairs                 ...       903
Shell pairs after pre-screening             ...       900
Total number of primitive shell pairs       ...      2989
Primitive shell pairs kept                  ...      2566
          la=0 lb=0:    324 shell pairs
          la=1 lb=0:    348 shell pairs
          la=1 lb=1:    105 shell pairs
          la=2 lb=0:     75 shell pairs
          la=2 lb=1:     42 shell pairs
          la=2 lb=2:      6 shell pairs

Checking whether 4 symmetric matrices of dimension 82 fit in memory
:Max Core in MB      =   4096.00
 MB in use           =      4.15
 MB left             =   4091.85
 MB needed           =      0.10
 Data fit in memory  = YES
Calculating RI/J V-Matrix + Cholesky decomp.... done (  0.1 sec)
Calculating Nuclear repulsion               ... done (  0.0 sec) ENN=     82.878454450848 Eh

Diagonalization of the overlap matrix:
Smallest eigenvalue                        ... 2.836e-03
Time for diagonalization                   ...    0.006 sec
Threshold for overlap eigenvalues          ... 1.000e-07
Number of eigenvalues below threshold      ... 0
Time for construction of square roots      ...    0.003 sec
Total time needed                          ...    0.024 sec

-------------------
DFT GRID GENERATION
-------------------

General Integration Accuracy     IntAcc      ... 4.388
Radial Grid Type                 RadialGrid  ... OptM3 with GC (2021)
Angular Grid (max. ang.)         AngularGrid ... 4 (Lebedev-302)
Angular grid pruning method      GridPruning ... 4 (adaptive)
Weight generation scheme         WeightScheme... mBecke (2022)
Basis function cutoff            BFCut       ... 1.0000e-11
Integration weight cutoff        WCut        ... 1.0000e-14
Partially contracted basis set               ... off
Rotationally invariant grid construction     ... off
Angular grids for H and He will be reduced by one unit

Total number of grid points                  ...    44069
Total number of batches                      ...      692
Average number of points per batch           ...       63
Average number of grid points per atom       ...     4006
Grids setup in   0.7 sec
Initializing property integral containers    ... done (  0.0 sec)

SHARK setup successfully completed in   1.2 seconds

Maximum memory used throughout the entire STARTUP-calculation: 17.5 MB
-------------------------------------------------------------------------------
                                 ORCA GUESS
                   Start orbitals & Density for SCF / CASSCF
-------------------------------------------------------------------------------

------------
SCF SETTINGS
------------
Hamiltonian:
 Density Functional     Method          .... DFT(GTOs)
 Exchange Functional    Exchange        .... PBE
   PBE kappa parameter   XKappa         ....  0.804000
   PBE mue parameter    XMuePBE         ....  0.219520
 Correlation Functional Correlation     .... PBE
   PBE beta parameter  CBetaPBE         ....  0.066725
 LDA part of GGA corr.  LDAOpt          .... PW91-LDA
 Gradients option       PostSCFGGA      .... off
   NL short-range parameter             ....  6.400000
 RI-approximation to the Coulomb term is turned on
   Number of AuxJ basis functions       .... 235


General Settings:
 Integral files         IntName         .... 002
 Hartree-Fock type      HFTyp           .... RHF
 Total Charge           Charge          ....    0
 Multiplicity           Mult            ....    1
 Number of Electrons    NEL             ....   26
 Basis Dimension        Dim             ....   82
 Nuclear Repulsion      ENuc            ....     82.8784544508 Eh

Convergence Acceleration:
 AO-DIIS                CNVDIIS         .... on
   Start iteration      DIISMaxIt       ....    12
   Startup error        DIISStart       ....  0.200000
   # of expansion vecs  DIISMaxEq       ....     5
   Bias factor          DIISBfac        ....   1.050
   Max. coefficient     DIISMaxC        ....  10.000
 MO-DIIS                CNVKDIIS        .... off
 Trust-Rad. Augm. Hess. CNVTRAH         .... auto
   Auto Start mean grad. ratio tolernc. ....  1.125000
   Auto Start start iteration           ....    50
   Auto Start num. interpolation iter.  ....    10
   Max. Number of Micro iterations      ....    24
   Max. Number of Macro iterations      .... Maxiter - #DIIS iter
   Number of Davidson start vectors     ....     2
   Converg. threshold    (grad. norm)   ....   1.000e-05
   Grad. Scal. Fac. for Micro threshold ....   0.100
   Minimum threshold for Micro iter.    ....   1.000e-02
   NR start threshold (gradient norm)   ....   1.000e-04
   Initial trust radius                 ....   0.400
   Minimum AH scaling param. (alpha)    ....   1.000
   Maximum AH scaling param. (alpha)    .... 1000.000
   Quad. conv. algorithm                .... NR
   White noise on init. David. guess    .... on
   Maximum white noise                  ....   0.010
   Pseudo random numbers                .... off
   Inactive MOs                         .... canonical
   Orbital update algorithm             .... Taylor
   Preconditioner                       .... Diag
   Full preconditioner red. dimension   ....   250
 SOSCF                 CNVSOSCF           .... on
   Start iteration     SOSCFMaxIt         ....   150
   Startup grad/error  SOSCFStart         ....  0.003300
   Hessian update      SOSCFHessUp        .... L-BFGS
   Autom. constraints  SOSCFAutoConstrain .... off
 Level Shifting         CNVShift        .... on
   Level shift para.    LevelShift      ....    0.2500
   Turn off err/grad.   ShiftErr        ....    0.0010
 Zerner damping         CNVZerner       .... off
 Static damping         CNVDamp         .... on
   Fraction old density DampFac         ....    0.7000
   Max. Damping (<1)    DampMax         ....    0.9800
   Min. Damping (>=0)   DampMin         ....    0.0000
   Turn off err/grad.   DampErr         ....    0.1000

SCF Procedure:
 Maximum # iterations   MaxIter         ....   125
 SCF integral mode      SCFMode         .... Direct
   Integral package                     .... SHARK and LIBINT hybrid scheme
 Reset frequency        DirectResetFreq ....    20
 Integral Threshold     Thresh          ....  2.500e-11 Eh
 Primitive CutOff       TCut            ....  2.500e-12 Eh

Convergence Tolerance:
 Convergence Check Mode ConvCheckMode   .... Total+1el-Energy
 Convergence forced     ConvForced      .... 0
 Energy Change          TolE            ....  1.000e-08 Eh
 1-El. energy change                    ....  1.000e-05 Eh
 Orbital Gradient       TolG            ....  1.000e-05
 Orbital Rotation angle TolX            ....  1.000e-05
 DIIS Error             TolErr          ....  5.000e-07

------------------------------
INITIAL GUESS: MODEL POTENTIAL
------------------------------
Loading Hartree-Fock densities                     ... done
Calculating cut-offs                               ... done
Initializing the effective Hamiltonian             ... done
Setting up the integral package (SHARK)            ... done
Starting the Coulomb interaction                   ... done (   0.1 sec)
Making the grid                                    ... done (   0.1 sec)
Mapping shells                                     ... done
Starting the XC term evaluation                    ... done (   0.2 sec)
  promolecular density results
     # of electrons  =     25.995960641
     EX              =    -17.686993767
     EC              =     -0.818348803
     EX+EC           =    -18.505342570
Transforming the Hamiltonian                       ... done (   0.0 sec)
Diagonalizing the Hamiltonian                      ... done (   0.0 sec)
Back transforming the eigenvectors                 ... done (   0.0 sec)
Now organizing SCF variables                       ... done
                      ------------------
                      INITIAL GUESS DONE (   0.4 sec)
                      ------------------
             **** ENERGY FILE WAS UPDATED (002.en.tmp) ****
Finished Guess after   0.4 sec
Maximum memory used throughout the entire GUESS-calculation: 7.2 MB

-------------------------------------------------------------------------------------------
                                      ORCA LEAN-SCF
                              memory conserving SCF solver
-------------------------------------------------------------------------------------------

----------------------------------------D-I-I-S--------------------------------------------
Iteration    Energy (Eh)           Delta-E    RMSDP     MaxDP     DIISErr   Damp  Time(sec)
-------------------------------------------------------------------------------------------
               ***  Starting incremental Fock matrix formation  ***
    1    -118.7427482225523221     0.00e+00  4.76e-03  7.39e-02  1.60e-01  0.700   1.1
    2    -118.8058035927807481    -6.31e-02  3.44e-03  4.15e-02  7.57e-02  0.700   0.9
                               ***Turning on AO-DIIS***
    3    -118.8273201242419788    -2.15e-02  1.39e-03  1.29e-02  2.04e-02  0.700   0.7
    4    -118.8398237428040858    -1.25e-02  2.04e-03  2.05e-02  8.16e-03  0.000   1.8
    5    -118.8684269683226802    -2.86e-02  5.84e-04  5.49e-03  7.47e-03  0.000   0.9
                              *** Initializing SOSCF ***
---------------------------------------S-O-S-C-F--------------------------------------
Iteration    Energy (Eh)           Delta-E    RMSDP     MaxDP     MaxGrad    Time(sec)
--------------------------------------------------------------------------------------
    6    -118.8687607663091939    -3.34e-04  2.28e-04  2.00e-03  1.83e-03     1.1
               *** Restarting incremental Fock matrix formation ***
    7    -118.8687883508270744    -2.76e-05  1.59e-04  1.45e-03  3.65e-04     0.7
    8    -118.8687884587005072    -1.08e-07  3.91e-05  7.04e-04  3.61e-04     1.2
    9    -118.8687907431642401    -2.28e-06  2.19e-05  2.33e-04  6.21e-05     0.7
   10    -118.8687907920599258    -4.89e-08  6.15e-06  6.52e-05  3.50e-05     0.5
   11    -118.8687908141684346    -2.21e-08  3.01e-06  3.09e-05  8.37e-06     0.5
   12    -118.8687908145316925    -3.63e-10  1.44e-06  1.86e-05  8.51e-06     0.6
                 **** Energy Check signals convergence ****

               *****************************************************
               *                     SUCCESS                       *
               *           SCF CONVERGED AFTER  12 CYCLES          *
               *****************************************************

             **** ENERGY FILE WAS UPDATED (002.en.tmp) ****

----------------
TOTAL SCF ENERGY
----------------

Total Energy       :       -118.86879081544252 Eh           -3234.58424 eV

Components:
Nuclear Repulsion  :         82.87845445084839 Eh            2255.23740 eV
Electronic Energy  :       -201.74724526629092 Eh           -5489.82164 eV
One Electron Energy:       -322.24908047457302 Eh           -8768.84328 eV
Two Electron Energy:        120.50183520828210 Eh            3279.02164 eV

Virial components:
Potential Energy   :       -236.28618000830062 Eh           -6429.67384 eV
Kinetic Energy     :        117.41738919285810 Eh            3195.08960 eV
Virial Ratio       :          2.01236104492326

DFT components:
N(Alpha)           :       13.000001535827 electrons
N(Beta)            :       13.000001535827 electrons
N(Total)           :       26.000003071654 electrons
E(X)               :      -18.229838496228 Eh       
E(C)               :       -0.830286714536 Eh       
E(XC)              :      -19.060125210764 Eh       

---------------
SCF CONVERGENCE
---------------

  Last Energy change         ...    3.6326e-10  Tolerance :   1.0000e-08
  Last MAX-Density change    ...    1.8554e-05  Tolerance :   1.0000e-07
  Last RMS-Density change    ...    1.4433e-06  Tolerance :   5.0000e-09
  Last DIIS Error            ...    1.8304e-03  Tolerance :   5.0000e-07
  Last Orbital Gradient      ...    8.5054e-06  Tolerance :   1.0000e-05
  Last Orbital Rotation      ...    9.2732e-06  Tolerance :   1.0000e-05


----------------
ORBITAL ENERGIES
----------------

  NO   OCC          E(Eh)            E(eV) 
   0   2.0000      -9.887420      -269.0504 
   1   2.0000      -9.880686      -268.8671 
   2   2.0000      -9.880667      -268.8666 
   3   2.0000      -0.701527       -19.0895 
   4   2.0000      -0.603825       -16.4309 
   5   2.0000      -0.513799       -13.9812 
   6   2.0000      -0.407295       -11.0831 
   7   2.0000      -0.386316       -10.5122 
   8   2.0000      -0.351388        -9.5618 
   9   2.0000      -0.332033        -9.0351 
  10   2.0000      -0.292478        -7.9587 
  11   2.0000      -0.290260        -7.8984 
  12   2.0000      -0.282044        -7.6748 
  13   0.0000       0.039814         1.0834 
  14   0.0000       0.085751         2.3334 
  15   0.0000       0.087166         2.3719 
  16   0.0000       0.087211         2.3731 
  17   0.0000       0.117059         3.1853 
  18   0.0000       0.135637         3.6909 
  19   0.0000       0.138117         3.7584 
  20   0.0000       0.144987         3.9453 
  21   0.0000       0.184449         5.0191 
  22   0.0000       0.220015         5.9869 
  23   0.0000       0.370771        10.0892 
*Only the first 10 virtual orbitals were printed.

                    ********************************
                    * MULLIKEN POPULATION ANALYSIS *
                    ********************************

-----------------------
MULLIKEN ATOMIC CHARGES
-----------------------
   0 C :   -0.040720
   1 C :   -0.075359
   2 C :   -0.040739
   3 H :    0.019948
   4 H :    0.019941
   5 H :    0.020742
   6 H :    0.017764
   7 H :    0.017783
   8 H :    0.019940
   9 H :    0.020751
  10 H :    0.019948
Sum of atomic charges:   -0.0000000

--------------------------------
MULLIKEN REDUCED ORBITAL CHARGES
--------------------------------
  0 C s       :     3.014815  s :     3.014815
      pz      :     1.007167  p :     2.999888
      px      :     0.999422
      py      :     0.993300
      dz2     :     0.004130  d :     0.026016
      dxz     :     0.003554
      dyz     :     0.007767
      dx2y2   :     0.005659
      dxy     :     0.004906

  1 C s       :     3.043947  s :     3.043947
      pz      :     1.005314  p :     2.996153
      px      :     0.982015
      py      :     1.008824
      dz2     :     0.004422  d :     0.035258
      dxz     :     0.006862
      dyz     :     0.008973
      dx2y2   :     0.007642
      dxy     :     0.007360

  2 C s       :     3.014805  s :     3.014805
      pz      :     1.009698  p :     2.999916
      px      :     0.987419
      py      :     1.002799
      dz2     :     0.002750  d :     0.026017
      dxz     :     0.005733
      dyz     :     0.007055
      dx2y2   :     0.004266
      dxy     :     0.006213

  3 H s       :     0.956594  s :     0.956594
      pz      :     0.008500  p :     0.023458
      px      :     0.005356
      py      :     0.009602

  4 H s       :     0.956600  s :     0.956600
      pz      :     0.011123  p :     0.023459
      px      :     0.006222
      py      :     0.006115

  5 H s       :     0.955884  s :     0.955884
      pz      :     0.005705  p :     0.023374
      px      :     0.011646
      py      :     0.006023

  6 H s       :     0.959951  s :     0.959951
      pz      :     0.010589  p :     0.022285
      px      :     0.005843
      py      :     0.005853

  7 H s       :     0.959932  s :     0.959932
      pz      :     0.008500  p :     0.022286
      px      :     0.004498
      py      :     0.009287

  8 H s       :     0.956601  s :     0.956601
      pz      :     0.009112  p :     0.023458
      px      :     0.004610
      py      :     0.009736

  9 H s       :     0.955875  s :     0.955875
      pz      :     0.006599  p :     0.023374
      px      :     0.007369
      py      :     0.009406

 10 H s       :     0.956595  s :     0.956595
      pz      :     0.010628  p :     0.023457
      px      :     0.006410
      py      :     0.006420



                     *******************************
                     * LOEWDIN POPULATION ANALYSIS *
                     *******************************

----------------------
LOEWDIN ATOMIC CHARGES
----------------------
   0 C :   -0.069829
   1 C :   -0.053411
   2 C :   -0.069835
   3 H :    0.023786
   4 H :    0.023781
   5 H :    0.025475
   6 H :    0.023493
   7 H :    0.023494
   8 H :    0.023785
   9 H :    0.025475
  10 H :    0.023787

-------------------------------
LOEWDIN REDUCED ORBITAL CHARGES
-------------------------------
  0 C s       :     2.841007  s :     2.841007
      pz      :     1.061623  p :     3.158971
      px      :     1.049737
      py      :     1.047611
      dz2     :     0.010712  d :     0.069851
      dxz     :     0.009840
      dyz     :     0.020837
      dx2y2   :     0.013870
      dxy     :     0.014592

  1 C s       :     2.836078  s :     2.836078
      pz      :     1.056958  p :     3.128461
      px      :     1.026966
      py      :     1.044537
      dz2     :     0.011346  d :     0.088872
      dxz     :     0.016346
      dyz     :     0.023658
      dx2y2   :     0.017912
      dxy     :     0.019610

  2 C s       :     2.841004  s :     2.841004
      pz      :     1.065163  p :     3.158979
      px      :     1.032822
      py      :     1.060995
      dz2     :     0.008032  d :     0.069851
      dxz     :     0.014194
      dyz     :     0.019185
      dx2y2   :     0.011841
      dxy     :     0.016599

  3 H s       :     0.910249  s :     0.910249
      pz      :     0.023894  p :     0.065965
      px      :     0.013424
      py      :     0.028647

  4 H s       :     0.910254  s :     0.910254
      pz      :     0.032120  p :     0.065964
      px      :     0.016975
      py      :     0.016869

  5 H s       :     0.908526  s :     0.908526
      pz      :     0.014163  p :     0.065999
      px      :     0.034938
      py      :     0.016898

  6 H s       :     0.910554  s :     0.910554
      pz      :     0.031166  p :     0.065953
      px      :     0.018065
      py      :     0.016722

  7 H s       :     0.910553  s :     0.910553
      pz      :     0.024220  p :     0.065953
      px      :     0.013592
      py      :     0.028141

  8 H s       :     0.910251  s :     0.910251
      pz      :     0.024885  p :     0.065964
      px      :     0.013307
      py      :     0.027772

  9 H s       :     0.908525  s :     0.908525
      pz      :     0.016799  p :     0.066000
      px      :     0.022328
      py      :     0.026874

 10 H s       :     0.910249  s :     0.910249
      pz      :     0.030764  p :     0.065964
      px      :     0.018839
      py      :     0.016361



                      *****************************
                      * MAYER POPULATION ANALYSIS *
                      *****************************

  NA   - Mulliken gross atomic population
  ZA   - Total nuclear charge
  QA   - Mulliken gross atomic charge
  VA   - Mayer's total valence
  BVA  - Mayer's bonded valence
  FA   - Mayer's free valence

  ATOM       NA         ZA         QA         VA         BVA        FA
  0 C      6.0407     6.0000    -0.0407     4.0282     4.0282    -0.0000
  1 C      6.0754     6.0000    -0.0754     4.1719     4.1719    -0.0000
  2 C      6.0407     6.0000    -0.0407     4.0283     4.0283    -0.0000
  3 H      0.9801     1.0000     0.0199     0.9890     0.9890    -0.0000
  4 H      0.9801     1.0000     0.0199     0.9890     0.9890    -0.0000
  5 H      0.9793     1.0000     0.0207     0.9832     0.9832    -0.0000
  6 H      0.9822     1.0000     0.0178     0.9711     0.9711     0.0000
  7 H      0.9822     1.0000     0.0178     0.9711     0.9711    -0.0000
  8 H      0.9801     1.0000     0.0199     0.9890     0.9890    -0.0000
  9 H      0.9792     1.0000     0.0208     0.9832     0.9832    -0.0000
 10 H      0.9801     1.0000     0.0199     0.9890     0.9890    -0.0000

  Mayer bond orders larger than 0.100000
B(  0-C ,  1-C ) :   1.1183 B(  0-C ,  3-H ) :   0.9694 B(  0-C ,  4-H ) :   0.9694 
B(  0-C ,  5-H ) :   0.9637 B(  1-C ,  2-C ) :   1.1184 B(  1-C ,  6-H ) :   0.9456 
B(  1-C ,  7-H ) :   0.9456 B(  2-C ,  8-H ) :   0.9693 B(  2-C ,  9-H ) :   0.9637 
B(  2-C , 10-H ) :   0.9694 

-------
TIMINGS
-------

Total SCF time: 0 days 0 hours 0 min 11 sec 

Total time                  ....      11.703 sec
Sum of individual times     ....      10.770 sec  ( 92.0%)

SCF preparation             ....       0.107 sec  (  0.9%)
Fock matrix formation       ....       9.309 sec  ( 79.5%)
  Startup                   ....       0.021 sec  (  0.2% of F)
  Split-RI-J                ....       1.525 sec  ( 16.4% of F)
  XC integration            ....       8.033 sec  ( 86.3% of F)
    Basis function eval.    ....       2.851 sec  ( 35.5% of XC)
    Density eval.           ....       1.463 sec  ( 18.2% of XC)
    XC-Functional eval.     ....       0.553 sec  (  6.9% of XC)
    XC-Potential eval.      ....       2.091 sec  ( 26.0% of XC)
Diagonalization             ....       0.000 sec  (  0.0%)
Density matrix formation    ....       0.373 sec  (  3.2%)
Total Energy calculation    ....       0.322 sec  (  2.8%)
Population analysis         ....       0.028 sec  (  0.2%)
Orbital Transformation      ....       0.023 sec  (  0.2%)
Orbital Orthonormalization  ....       0.000 sec  (  0.0%)
DIIS solution               ....       0.362 sec  (  3.1%)
SOSCF solution              ....       0.246 sec  (  2.1%)
Finished LeanSCF after  11.8 sec

Maximum memory used throughout the entire LEANSCF-calculation: 9.0 MB

------------------------------------------------------------------------------
                         ORCA PROPERTY INTEGRAL CALCULATIONS
------------------------------------------------------------------------------

GBWName                                   ... 002.gbw
Number of atoms                           ...     11
Number of basis functions                 ...     82
Max core memory                           ...   4096 MB

Dipole integrals                          ... YES
Quadrupole integrals                      ...  NO
Linear momentum integrals                 ...  NO
Angular momentum integrals                ...  NO
Higher moments length integrals           ...  NO
Higher moments velocity integrals         ...  NO
Kinetic energy integrals                  ...  NO
GIAO right hand sides                     ...  NO
GIAO dipole derivative integrals          ...  NO
SOC integrals                             ...  NO
EPR diamagnetic integrals (GIAO)          ...  NO
EPR gauge integrals                       ...  NO
Field gradient integrals                  ...  NO (   0 nuclei)
Spin-dipole/Fermi contact integrals       ...  NO (   0 nuclei)
Contact density integrals                 ...  NO (   0 nuclei)
Nucleus-orbit integrals                   ...  NO (   0 nuclei)
Geometric perturbations                   ...  NO (  11 nuclei)

Choice of electric origin   ... Center of mass
Position of electric origin ... (  0.0205,  0.0678, -0.0986) 
Choice of magnetic origin   ... GIAO
Position of magnetic origin ... (  0.0000,  0.0000,  0.0000) 

Calculating integrals                     ... Electric Dipole (Length)     done (  0.0 sec)

Property integrals calculated in   0.0 sec

Maximum memory used throughout the entire PROPINT-calculation: 7.0 MB

-------------------------   --------------------
FINAL SINGLE POINT ENERGY      -118.868790815443
-------------------------   --------------------

------------------------------------------------------------------------------
                         ORCA SCF GRADIENT CALCULATION
------------------------------------------------------------------------------

Nuc. rep. gradient        (SHARK) ... done (  0.0 sec)
HCore & Overlap gradient  (SHARK) ... done (  0.1 sec)
Split-RIJ-J gradient      (SHARK) ... done (  0.6 sec)
XC gradient                       ... done (  3.4 sec)

------------------
CARTESIAN GRADIENT
------------------

   1   C   :   -0.000812209   -0.008083790   -0.001848579
   2   C   :    0.003430954    0.011393207    0.001821768
   3   C   :   -0.003835443   -0.007299230   -0.000586059
   4   H   :   -0.001517838    0.008187072   -0.005382105
   5   H   :    0.003047884    0.004673710    0.008211294
   6   H   :   -0.009781624   -0.000911572    0.003062498
   7   H   :   -0.004396718   -0.005581776   -0.007692375
   8   H   :    0.000003563   -0.009001981    0.005371948
   9   H   :    0.000683655    0.007663707   -0.006266571
  10   H   :    0.007949156   -0.005158176   -0.004028964
  11   H   :    0.005228619    0.004118828    0.007337144

Difference to translation invariance:
           :    0.0000000000   -0.0000000000    0.0000000000

Difference to rotation invariance:
           :    0.0000010401    0.0001574645   -0.0001165661

Norm of the Cartesian gradient     ...    0.0332804591
RMS gradient                       ...    0.0057933843
MAX gradient                       ...    0.0113932067

-------
TIMINGS
-------

Total SCF gradient time     ....        4.076 sec

One electron gradient       ....       0.098 sec  (  2.4%)
RI-J Coulomb gradient       ....       0.559 sec  ( 13.7%)
XC gradient                 ....       3.417 sec  ( 83.8%)

Maximum memory used throughout the entire SCFGRAD-calculation: 11.8 MB
------------------------------------------------------------------------------
                         ORCA GEOMETRY RELAXATION STEP
------------------------------------------------------------------------------

Reading the OPT-File                    .... done
Getting information on internals        .... done
Copying old internal coords+grads       .... done
Making the new internal coordinates     .... (2022 redundants) done
Validating the new internal coordinates .... (2022 redundants) done
Calculating the B-matrix                .... done
Calculating the G,G- and P matrices     .... done
Transforming gradient to internals      .... done
Projecting the internal gradient        .... done
Number of atoms                         ....  11
Number of internal coordinates          ....  40
Current Energy                          ....  -118.868790815 Eh
Current gradient norm                   ....     0.033280459 Eh/bohr
Maximum allowed component of the step   ....  0.300
Current trust radius                    ....  0.300
Evaluating the initial hessian          ....  (Almloef) done
Projecting the Hessian                  .... done
Forming the augmented Hessian           .... done
Diagonalizing the augmented Hessian     .... done
Last element of RFO vector              ....  0.995327340
Lowest eigenvalues of augmented Hessian:
 -0.003149435  0.012003805  0.012003863  0.089947694  0.106881365
Length of the computed step             ....  0.097011499
The final length of the internal step   ....  0.097011499
Converting the step to Cartesian space:
 Initial RMS(Int)=    0.0153388649
Transforming coordinates:
 Iter   0:  RMS(Cart)=    0.0278506675 RMS(Int)=    0.9933296019
done
Storing new coordinates                 .... done

                                .--------------------.
          ----------------------|Geometry convergence|-------------------------
          Item                value                   Tolerance       Converged
          ---------------------------------------------------------------------
          RMS gradient        0.0052497638            0.0001000000      NO
          MAX gradient        0.0102898645            0.0003000000      NO
          RMS step            0.0153388649            0.0020000000      NO
          MAX step            0.0289141349            0.0040000000      NO
          -------------------------------------------------------------------------
          ........................................................
          Max(Bonds)      0.0153      Max(Angles)    1.20
          Max(Dihed)        0.70      Max(Improp)    0.00
          ---------------------------------------------------------------------

The optimization has not yet converged - more geometry cycles are needed


    ---------------------------------------------------------------------------
                         Redundant Internal Coordinates
                            (Angstroem and degrees)

        Definition                    Value    dE/dq     Step     New-Value
    ----------------------------------------------------------------------------
     1. B(C   1,C   0)                1.5193 -0.009646  0.0130    1.5324   
     2. B(C   2,C   1)                1.5193 -0.009653  0.0130    1.5324   
     3. B(H   3,C   0)                1.0947 -0.009831  0.0146    1.1093   
     4. B(H   4,C   0)                1.0947 -0.009847  0.0146    1.1093   
     5. B(H   5,C   0)                1.0945 -0.009817  0.0145    1.1090   
     6. B(H   6,C   1)                1.0956 -0.010282  0.0153    1.1109   
     7. B(H   7,C   1)                1.0956 -0.010290  0.0153    1.1109   
     8. B(H   8,C   2)                1.0947 -0.009840  0.0146    1.1093   
     9. B(H   9,C   2)                1.0945 -0.009828  0.0146    1.1090   
    10. B(H  10,C   2)                1.0947 -0.009821  0.0146    1.1093   
    11. A(H   3,C   0,H   5)          108.08  0.002043   -0.29    107.79   
    12. A(H   3,C   0,H   4)          108.28  0.001602   -0.47    107.82   
    13. A(C   1,C   0,H   4)          111.00 -0.000632    0.09    111.09   
    14. A(C   1,C   0,H   5)          110.28 -0.004233    0.84    111.12   
    15. A(H   4,C   0,H   5)          108.08  0.002057   -0.29    107.79   
    16. A(C   1,C   0,H   3)          111.00 -0.000599    0.08    111.08   
    17. A(H   6,C   1,H   7)          107.30  0.001816   -0.85    106.44   
    18. A(C   0,C   1,H   7)          109.45  0.001697   -0.10    109.34   
    19. A(C   0,C   1,C   2)          111.66 -0.006204    1.20    112.86   
    20. A(C   2,C   1,H   7)          109.45 -0.000180   -0.08    109.37   
    21. A(C   0,C   1,H   6)          109.45  0.001833   -0.13    109.32   
    22. A(C   2,C   1,H   6)          109.45  0.001361   -0.12    109.32   
    23. A(H   8,C   2,H   9)          108.08  0.002139   -0.30    107.79   
    24. A(C   1,C   2,H   9)          110.28 -0.004592    0.84    111.12   
    25. A(C   1,C   2,H   8)          111.00 -0.000214    0.08    111.08   
    26. A(H   9,C   2,H  10)          108.08  0.001241   -0.27    107.81   
    27. A(H   8,C   2,H  10)          108.28  0.002274   -0.47    107.81   
    28. A(C   1,C   2,H  10)          111.00 -0.000622    0.08    111.08   
    29. D(H   6,C   1,C   0,H   4)   -178.42  0.000053    0.01   -178.41   
    30. D(H   6,C   1,C   0,H   3)     61.09 -0.001146    0.49     61.58   
    31. D(C   2,C   1,C   0,H   3)    -60.24 -0.000041   -0.05    -60.30   
    32. D(H   6,C   1,C   0,H   5)    -58.66 -0.000548    0.25    -58.41   
    33. D(C   2,C   1,C   0,H   5)    180.00  0.000556   -0.29    179.71   
    34. D(C   2,C   1,C   0,H   4)     60.24  0.001158   -0.53     59.71   
    35. D(H   8,C   2,C   1,C   0)     60.24  0.000638   -0.14     60.11   
    36. D(H   9,C   2,C   1,H   7)    -58.66 -0.001875    0.70    -57.97   
    37. D(H   9,C   2,C   1,H   6)     58.66  0.001006   -0.45     58.21   
    38. D(H   9,C   2,C   1,C   0)    180.00  0.000175    0.09    180.09   
    39. D(H   8,C   2,C   1,H   7)   -178.42 -0.001411    0.47   -177.95   
    40. D(H   8,C   2,C   1,H   6)    -61.09  0.001469   -0.68    -61.77   
    ----------------------------------------------------------------------------

Geometry step timings:
Preparation and reading OPT file:      0.001 s (14.286 %)
Internal coordinates            :      0.000 s ( 0.000 %)
B/P matrices and projection     :      0.000 s ( 0.000 %)
Hessian update/contruction      :      0.003 s (42.857 %)
Making the step                 :      0.001 s (14.286 %)
Converting the step to Cartesian:      0.000 s ( 0.000 %)
Storing new data                :      0.001 s (14.286 %)
Checking convergence            :      0.000 s ( 0.000 %)
Final printing                  :      0.001 s (14.286 %)
Total time                      :      0.007 s

Time for energy+gradient        :     18.911 s
Time for complete geometry iter :     19.065 s

         *************************************************************
         *                GEOMETRY OPTIMIZATION CYCLE   2            *
         *************************************************************
---------------------------------
CARTESIAN COORDINATES (ANGSTROEM)
---------------------------------
  C      1.090953   -0.496341   -0.554864
  C      0.176648    0.582566    0.035174
  C     -1.224044    0.058350    0.368987
  H      1.227433   -1.336470    0.156528
  H      0.666076   -0.910774   -1.492039
  H      2.093732   -0.085265   -0.790195
  H      0.642878    0.996681    0.954566
  H      0.092830    1.426510   -0.682393
  H     -1.175821   -0.762857    1.113193
  H     -1.861060    0.861697    0.791845
  H     -1.729626   -0.334097   -0.537026

----------------------------
CARTESIAN COORDINATES (A.U.)
----------------------------
  NO LB      ZA    FRAG     MASS         X           Y           Z
   0 C     6.0000    0    12.011    2.061603   -0.937949   -1.048541
   1 C     6.0000    0    12.011    0.333817    1.100890    0.066470
   2 C     6.0000    0    12.011   -2.313108    0.110265    0.697285
   3 H     1.0000    0     1.008    2.319513   -2.525563    0.295796
   4 H     1.0000    0     1.008    1.258701   -1.721114   -2.819544
   5 H     1.0000    0     1.008    3.956580   -0.161128   -1.493253
   6 H     1.0000    0     1.008    1.214863    1.883454    1.803869
   7 H     1.0000    0     1.008    0.175422    2.695713   -1.289535
   8 H     1.0000    0     1.008   -2.221979   -1.441591    2.103631
   9 H     1.0000    0     1.008   -3.516894    1.628371    1.496370
  10 H     1.0000    0     1.008   -3.268519   -0.631351   -1.014832

--------------------------------
INTERNAL COORDINATES (ANGSTROEM)
--------------------------------
 C      0   0   0     0.000000000000     0.00000000     0.00000000
 C      1   0   0     1.532364050060     0.00000000     0.00000000
 C      2   1   0     1.532374793907   112.85545954     0.00000000
 H      1   2   3     1.109289320161   111.08271078   299.70357103
 H      1   2   3     1.109311233027   111.08876017    59.71227699
 H      1   2   3     1.109022092823   111.11445289   179.70863510
 H      2   1   3     1.110919829926   109.31236583   121.88117541
 H      2   1   3     1.110931883526   109.34026605   238.03929264
 H      3   2   1     1.109301431050   111.07914618    60.10601303
 H      3   2   1     1.109037473244   111.11772546   180.08965898
 H      3   2   1     1.109273065804   111.08272660   300.11227654

---------------------------
INTERNAL COORDINATES (A.U.)
---------------------------
 C      0   0   0     0.000000000000     0.00000000     0.00000000
 C      1   0   0     2.895748392079     0.00000000     0.00000000
 C      2   1   0     2.895768695009   112.85545954     0.00000000
 H      1   2   3     2.096253018388   111.08271078   299.70357103
 H      1   2   3     2.096294427704   111.08876017    59.71227699
 H      1   2   3     2.095748031904   111.11445289   179.70863510
 H      2   1   3     2.099334235303   109.31236583   121.88117541
 H      2   1   3     2.099357013306   109.34026605   238.03929264
 H      3   2   1     2.096275904651   111.07914618    60.10601303
 H      3   2   1     2.095777096686   111.11772546   180.08965898
 H      3   2   1     2.096222302106   111.08272660   300.11227654

------------------------------------------------------------------------------
                   ___                                                        
                  /   \      - P O W E R E D   B Y -                         
                 /     \                                                     
                 |  |  |   _    _      __       _____    __    __             
                 |  |  |  | |  | |    /  \     |  _  \  |  |  /  |          
                  \  \/   | |  | |   /    \    | | | |  |  | /  /          
                 / \  \   | |__| |  /  /\  \   | |_| |  |  |/  /          
                |  |  |   |  __  | /  /__\  \  |    /   |      \           
                |  |  |   | |  | | |   __   |  |    \   |  |\   \          
                \     /   | |  | | |  |  |  |  | |\  \  |  | \   \       
                 \___/    |_|  |_| |__|  |__|  |_| \__\ |__|  \__/        
                                                                              
                      - O R C A' S   B I G   F R I E N D -                    
                                      &                                       
                       - I N T E G R A L  F E E D E R -                       
                                                                              
 v1 FN, 2020, v2 2021, v3 2022-2024                                           
------------------------------------------------------------------------------


----------------------
SHARK INTEGRAL PACKAGE
----------------------

Number of atoms                             ...     11
Number of basis functions                   ...     82
Number of shells                            ...     42
Maximum angular momentum                    ...      2
Integral batch strategy                     ... SHARK/LIBINT Hybrid
RI-J (if used) integral strategy            ... SPLIT-RIJ (Revised 2003 algorithm where possible)
Printlevel                                  ...      1
Contraction scheme used                     ... SEGMENTED contraction
Prescreening option                         ... SCHWARTZ
   Thresh                                   ... 2.500e-11
   Tcut                                     ... 2.500e-12
   Tpresel                                  ... 2.500e-12 
Coulomb Range Separation                    ... NOT USED
Exchange Range Separation                   ... NOT USED
Multipole approximations                    ... NOT USED
Finite Nucleus Model                        ... NOT USED
CABS basis                                  ... NOT available
Auxiliary Coulomb fitting basis             ... AVAILABLE
   # of basis functions in Aux-J            ...    235
   # of shells in Aux-J                     ...     85
   Maximum angular momentum in Aux-J        ...      4
Auxiliary J/K fitting basis                 ... NOT available
Auxiliary Correlation fitting basis         ... NOT available
Auxiliary 'external' fitting basis          ... NOT available

Checking pre-screening integrals            ... done (  0.0 sec) Dimension = 42
   => SHARK Basis and OBASIS are compatible. Storing Pre-screening
Shell pair information
Shell pair cut-off parameter TPreSel        ...   2.5e-12
Total number of shell pairs                 ...       903
Shell pairs after pre-screening             ...       900
Total number of primitive shell pairs       ...      2989
Primitive shell pairs kept                  ...      2548
          la=0 lb=0:    324 shell pairs
          la=1 lb=0:    348 shell pairs
          la=1 lb=1:    105 shell pairs
          la=2 lb=0:     75 shell pairs
          la=2 lb=1:     42 shell pairs
          la=2 lb=2:      6 shell pairs

Checking whether 4 symmetric matrices of dimension 82 fit in memory
:Max Core in MB      =   4096.00
 MB in use           =      4.20
 MB left             =   4091.80
 MB needed           =      0.10
 Data fit in memory  = YES
Calculating RI/J V-Matrix + Cholesky decomp.... done (  0.0 sec)
Calculating Nuclear repulsion               ... done (  0.0 sec) ENN=     81.891424089401 Eh

Diagonalization of the overlap matrix:
Smallest eigenvalue                        ... 3.054e-03
Time for diagonalization                   ...    0.001 sec
Threshold for overlap eigenvalues          ... 1.000e-07
Number of eigenvalues below threshold      ... 0
Time for construction of square roots      ...    0.003 sec
Total time needed                          ...    0.007 sec

-------------------
DFT GRID GENERATION
-------------------

General Integration Accuracy     IntAcc      ... 4.388
Radial Grid Type                 RadialGrid  ... OptM3 with GC (2021)
Angular Grid (max. ang.)         AngularGrid ... 4 (Lebedev-302)
Angular grid pruning method      GridPruning ... 4 (adaptive)
Weight generation scheme         WeightScheme... mBecke (2022)
Basis function cutoff            BFCut       ... 1.0000e-11
Integration weight cutoff        WCut        ... 1.0000e-14
Partially contracted basis set               ... off
Rotationally invariant grid construction     ... off
Angular grids for H and He will be reduced by one unit

Total number of grid points                  ...    44109
Total number of batches                      ...      694
Average number of points per batch           ...       63
Average number of grid points per atom       ...     4010
Grids setup in   0.4 sec
Initializing property integral containers    ... done (  0.0 sec)

SHARK setup successfully completed in   0.5 seconds

Maximum memory used throughout the entire STARTUP-calculation: 17.6 MB
Occupation numbers will be reassigned to an Aufbau configuration
             **** ENERGY FILE WAS UPDATED (002.en.tmp) ****
Finished Guess after   0.1 sec
Maximum memory used throughout the entire GUESS-calculation: 6.9 MB
----------------------------------------D-I-I-S--------------------------------------------
Iteration    Energy (Eh)           Delta-E    RMSDP     MaxDP     DIISErr   Damp  Time(sec)
-------------------------------------------------------------------------------------------
               ***  Starting incremental Fock matrix formation  ***
    1    -118.8701929681900964     0.00e+00  2.31e-04  3.75e-03  4.95e-03  0.700   0.8
                              *** Initializing SOSCF ***
---------------------------------------S-O-S-C-F--------------------------------------
Iteration    Energy (Eh)           Delta-E    RMSDP     MaxDP     MaxGrad    Time(sec)
--------------------------------------------------------------------------------------
    2    -118.8702896546714527    -9.67e-05  6.40e-04  1.00e-02  3.18e-03     0.5
               *** Restarting incremental Fock matrix formation ***
    3    -118.8704764440098671    -1.87e-04  2.78e-04  3.71e-03  8.70e-04     0.6
    4    -118.8704567745741798     1.97e-05  1.59e-04  2.07e-03  1.37e-03     0.6
    5    -118.8704926296700961    -3.59e-05  1.69e-05  1.83e-04  7.32e-05     0.7
    6    -118.8704926651122804    -3.54e-08  7.49e-06  9.56e-05  5.76e-05     0.8
    7    -118.8704927234086739    -5.83e-08  3.79e-06  6.81e-05  1.60e-05     0.6
    8    -118.8704927241059721    -6.97e-10  2.08e-06  2.87e-05  1.28e-05     0.6
                 **** Energy Check signals convergence ****

               *****************************************************
               *                     SUCCESS                       *
               *           SCF CONVERGED AFTER   8 CYCLES          *
               *****************************************************

             **** ENERGY FILE WAS UPDATED (002.en.tmp) ****

----------------
TOTAL SCF ENERGY
----------------

Total Energy       :       -118.87049272796936 Eh           -3234.63055 eV

Components:
Nuclear Repulsion  :         81.89142408940076 Eh            2228.37894 eV
Electronic Energy  :       -200.76191681737012 Eh           -5463.00949 eV
One Electron Energy:       -320.32728451976982 Eh           -8716.54855 eV
Two Electron Energy:        119.56536770239970 Eh            3253.53906 eV

Virial components:
Potential Energy   :       -236.10128494171357 Eh           -6424.64259 eV
Kinetic Energy     :        117.23079221374419 Eh            3190.01203 eV
Virial Ratio       :          2.01398694390153

DFT components:
N(Alpha)           :       13.000004871387 electrons
N(Beta)            :       13.000004871387 electrons
N(Total)           :       26.000009742774 electrons
E(X)               :      -18.180921256233 Eh       
E(C)               :       -0.827285837641 Eh       
E(XC)              :      -19.008207093873 Eh       

---------------
SCF CONVERGENCE
---------------

  Last Energy change         ...    6.9730e-10  Tolerance :   1.0000e-08
  Last MAX-Density change    ...    2.8663e-05  Tolerance :   1.0000e-07
  Last RMS-Density change    ...    2.0804e-06  Tolerance :   5.0000e-09
  Last DIIS Error            ...    3.1789e-03  Tolerance :   5.0000e-07
  Last Orbital Gradient      ...    1.2796e-05  Tolerance :   1.0000e-05
  Last Orbital Rotation      ...    1.2007e-05  Tolerance :   1.0000e-05


Total SCF time: 0 days 0 hours 0 min 5 sec 
Finished LeanSCF after   6.0 sec

Maximum memory used throughout the entire LEANSCF-calculation: 9.0 MB

------------------------------------------------------------------------------
                         ORCA PROPERTY INTEGRAL CALCULATIONS
------------------------------------------------------------------------------

GBWName                                   ... 002.gbw
Number of atoms                           ...     11
Number of basis functions                 ...     82
Max core memory                           ...   4096 MB

Dipole integrals                          ... YES
Quadrupole integrals                      ...  NO
Linear momentum integrals                 ...  NO
Angular momentum integrals                ...  NO
Higher moments length integrals           ...  NO
Higher moments velocity integrals         ...  NO
Kinetic energy integrals                  ...  NO
GIAO right hand sides                     ...  NO
GIAO dipole derivative integrals          ...  NO
SOC integrals                             ...  NO
EPR diamagnetic integrals (GIAO)          ...  NO
EPR gauge integrals                       ...  NO
Field gradient integrals                  ...  NO (   0 nuclei)
Spin-dipole/Fermi contact integrals       ...  NO (   0 nuclei)
Contact density integrals                 ...  NO (   0 nuclei)
Nucleus-orbit integrals                   ...  NO (   0 nuclei)
Geometric perturbations                   ...  NO (  11 nuclei)

Choice of electric origin   ... Center of mass
Position of electric origin ... (  0.0205,  0.0682, -0.0985) 
Choice of magnetic origin   ... GIAO
Position of magnetic origin ... (  0.0000,  0.0000,  0.0000) 

Calculating integrals                     ... Electric Dipole (Length)     done (  0.0 sec)

Property integrals calculated in   0.0 sec

Maximum memory used throughout the entire PROPINT-calculation: 7.0 MB

-------------------------   --------------------
FINAL SINGLE POINT ENERGY      -118.870492727969
-------------------------   --------------------

------------------------------------------------------------------------------
                         ORCA SCF GRADIENT CALCULATION
------------------------------------------------------------------------------

Nuc. rep. gradient        (SHARK) ... done (  0.0 sec)
HCore & Overlap gradient  (SHARK) ... done (  0.1 sec)
Split-RIJ-J gradient      (SHARK) ... done (  0.9 sec)
XC gradient                       ... done (  3.1 sec)

------------------
CARTESIAN GRADIENT
------------------

   1   C   :   -0.000117492   -0.003507625   -0.000892969
   2   C   :    0.001194635    0.004137793    0.000638481
   3   C   :   -0.001902096   -0.003049793   -0.000169385
   4   H   :   -0.000245766    0.000909902    0.000209669
   5   H   :   -0.000215269    0.000849209    0.000422421
   6   H   :   -0.000488608    0.001065864    0.000420695
   7   H   :   -0.000317309   -0.001256955   -0.000077029
   8   H   :   -0.000336145   -0.001135616   -0.000288362
   9   H   :    0.000669281    0.000682005   -0.000172732
  10   H   :    0.001019708    0.000710586   -0.000148936
  11   H   :    0.000739060    0.000594629    0.000058148

Difference to translation invariance:
           :   -0.0000000000   -0.0000000000    0.0000000000

Difference to rotation invariance:
           :    0.0000436935    0.0001651112   -0.0000940019

Norm of the Cartesian gradient     ...    0.0074184899
RMS gradient                       ...    0.0012913933
MAX gradient                       ...    0.0041377933

-------
TIMINGS
-------

Total SCF gradient time     ....        4.113 sec

Densities                   ....       0.001 sec  (  0.0%)
One electron gradient       ....       0.139 sec  (  3.4%)
RI-J Coulomb gradient       ....       0.885 sec  ( 21.5%)
XC gradient                 ....       3.088 sec  ( 75.1%)

Maximum memory used throughout the entire SCFGRAD-calculation: 11.8 MB
------------------------------------------------------------------------------
                         ORCA GEOMETRY RELAXATION STEP
------------------------------------------------------------------------------

Reading the OPT-File                    .... done
Getting information on internals        .... done
Copying old internal coords+grads       .... done
Making the new internal coordinates     .... (2022 redundants) done
Validating the new internal coordinates .... (2022 redundants) done
Calculating the B-matrix                .... done
Calculating the G,G- and P matrices     .... done
Transforming gradient to internals      .... done
Projecting the internal gradient        .... done
Number of atoms                         ....  11
Number of internal coordinates          ....  40
Current Energy                          ....  -118.870492728 Eh
Current gradient norm                   ....     0.007418490 Eh/bohr
Maximum allowed component of the step   ....  0.300
Current trust radius                    ....  0.300
Updating the Hessian (BFGS)             .... done
Forming the augmented Hessian           .... done
Diagonalizing the augmented Hessian     .... done
Last element of RFO vector              ....  0.999748814
Lowest eigenvalues of augmented Hessian:
 -0.000090801  0.012003793  0.012004451  0.089402813  0.106750537
Length of the computed step             ....  0.022417859
The final length of the internal step   ....  0.022417859
Converting the step to Cartesian space:
 Initial RMS(Int)=    0.0035445747
Transforming coordinates:
 Iter   0:  RMS(Cart)=    0.0054138154 RMS(Int)=    0.0035461029
done
Storing new coordinates                 .... done
The predicted energy change is          ....    -0.000045423
Previously predicted energy change      ....    -0.001589538
Actually observed energy change         ....    -0.001701913
Ratio of predicted to observed change   ....     1.070696555
New trust radius                        ....     0.450000000

                                .--------------------.
          ----------------------|Geometry convergence|-------------------------
          Item                value                   Tolerance       Converged
          ---------------------------------------------------------------------
          Energy change      -0.0017019125            0.0000050000      NO
          RMS gradient        0.0007104218            0.0001000000      NO
          MAX gradient        0.0017688222            0.0003000000      NO
[...]
     13      -0.109383   0.240613  -0.022480  -0.229772   0.397593   0.013432
     14      -0.085924  -0.001587   0.138402   0.121323  -0.219318  -0.136330
     15       0.044655  -0.092471   0.154090  -0.041352   0.063011  -0.153085
     16      -0.327722   0.378194  -0.119264   0.139742  -0.235713   0.118614
     17      -0.099012   0.129488   0.453624   0.050129  -0.085562  -0.450739
     18      -0.259809   0.009204   0.060558   0.018070   0.109888   0.013495
     19       0.062438   0.052657  -0.014425   0.516171  -0.026360   0.045094
     20       0.103669  -0.013747  -0.024212  -0.264539  -0.043760   0.008181
     21      -0.258262   0.023066  -0.058966   0.242421   0.109931  -0.015941
     22       0.061878   0.042019   0.014016   0.341882  -0.026601  -0.047893
     23       0.103136   0.027601   0.023530   0.400490  -0.044065  -0.009667
     24       0.358619   0.394689   0.269667  -0.083909  -0.149659   0.279409
     25      -0.076684   0.016538  -0.156201  -0.168034  -0.281916  -0.152262
     26      -0.080607   0.043099  -0.168286  -0.185288  -0.324537  -0.163388
     27       0.226546   0.291678  -0.152887   0.114763   0.187802  -0.151180
     28       0.266803   0.283374   0.118963   0.103050   0.174581   0.117928
     29      -0.007016  -0.024252  -0.455098  -0.013037  -0.016983  -0.450154
     30       0.324483   0.297044  -0.291139   0.011430   0.022752  -0.296079
     31      -0.049570   0.092291   0.171444  -0.242063  -0.415561   0.164851
     32      -0.182450  -0.247562   0.106905   0.102417   0.185338   0.113347
                 24         25         26         27         28         29    
      0      -0.026328  -0.017319  -0.004405  -0.018178  -0.006899  -0.021366
      1      -0.012871   0.028675   0.018138   0.023484   0.005231   0.015423
      2       0.005726   0.013387   0.006246   0.012276  -0.020220  -0.061152
      3      -0.020129   0.002078  -0.017687   0.008950   0.027080  -0.000198
      4      -0.067078  -0.000033  -0.058516   0.029550  -0.020956  -0.000011
      5      -0.010493  -0.000739  -0.009264   0.004677   0.080398  -0.000504
      6       0.015433  -0.031546   0.013570   0.028941  -0.006819   0.020420
      7      -0.023037  -0.017167   0.013390   0.012010   0.005318  -0.016370
      8      -0.011133   0.006205  -0.001143  -0.006678  -0.020093   0.059452
      9       0.214869   0.047384   0.028318   0.041380   0.017660   0.054052
     10       0.213119  -0.319963  -0.169394  -0.277782  -0.130758  -0.383417
     11       0.220288   0.279194   0.147622   0.239972   0.108353   0.318459
     12       0.082882  -0.169677  -0.087142  -0.145506   0.067178   0.197401
     13       0.317531  -0.154467  -0.081432  -0.134908   0.065662   0.193679
     14      -0.183771  -0.362007  -0.193458  -0.312273   0.142498   0.424156
     15       0.054170   0.320667   0.105566   0.315039  -0.001409   0.002738
     16      -0.242793   0.139321   0.042040   0.135185   0.001878   0.006301
     17      -0.084448  -0.072267  -0.024781  -0.071456  -0.006339  -0.014788
     18       0.000473  -0.004098   0.259746  -0.134758  -0.278203  -0.000455
     19       0.327707  -0.000992   0.221953  -0.113888  -0.255664   0.002564
     20      -0.194073  -0.002705   0.517592  -0.269215  -0.543518   0.005268
     21       0.159987  -0.001881  -0.052190   0.027647  -0.046955   0.002777
     22       0.203422  -0.002977   0.464193  -0.240021   0.507136  -0.002589
     23       0.278513   0.004002  -0.408937   0.213166  -0.421662   0.000624
     24       0.090460  -0.026907   0.011525   0.021324   0.008169  -0.022828
     25       0.243768   0.319287  -0.161118  -0.272730  -0.127997   0.371267
     26       0.272024  -0.290203   0.149586   0.246660   0.111256  -0.325828
     27      -0.185774   0.201292  -0.064764  -0.196519  -0.001486  -0.000594
     28      -0.185794  -0.266817   0.079727   0.257857   0.000858   0.002824
     29       0.012586  -0.137407   0.042594   0.133452  -0.006551   0.016158
     30      -0.047390   0.190710  -0.099516  -0.163500   0.075839  -0.219451
     31       0.350183   0.149879  -0.074395  -0.128744   0.062892  -0.179209
     32      -0.131665   0.356749  -0.180632  -0.302757   0.138318  -0.397780
                 30         31         32    
      0      -0.020229  -0.044808   0.054645
      1       0.013362  -0.037884   0.044885
      2      -0.055583   0.007259  -0.007721
      3      -0.010171   0.000309   0.002562
      4       0.007896   0.000661   0.008394
      5      -0.030184   0.001069   0.001341
      6      -0.020060  -0.021316  -0.017982
      7       0.016987   0.063418   0.051600
      8      -0.056635   0.025996   0.020497
      9       0.052023  -0.035733   0.044567
     10      -0.349056   0.176143  -0.208077
     11       0.286772  -0.156069   0.183158
     12       0.178659   0.076398  -0.095044
     13       0.180105   0.071868  -0.092722
     14       0.392619   0.183235  -0.233517
     15       0.011858   0.495107  -0.597022
     16       0.008574   0.201535  -0.242506
     17      -0.012957  -0.114941   0.138921
     18       0.100470  -0.006328  -0.031296
     19       0.090586  -0.005251  -0.028764
     20       0.197300  -0.011347  -0.061185
     21       0.017790  -0.000424   0.005355
     22      -0.182473  -0.000431  -0.057067
     23       0.154133   0.000545   0.047377
     24       0.018405   0.010598   0.006992
     25      -0.361738  -0.184102  -0.156501
     26       0.319061   0.181869   0.154961
     27       0.009027   0.381478   0.311077
     28      -0.012925  -0.479362  -0.390160
     29      -0.018020  -0.253221  -0.206417
     30       0.213038  -0.136863  -0.112016
     31       0.171207  -0.092529  -0.073908
     32       0.377907  -0.239057  -0.191509


-----------
IR SPECTRUM
-----------

 Mode   freq       eps      Int      T**2         TX        TY        TZ
       cm**-1   L/(mol*cm) km/mol    a.u.
----------------------------------------------------------------------------
  6:    226.71   0.000000    0.00  0.000000  (-0.000040 -0.000063 -0.000079)
  7:    272.93   0.000000    0.00  0.000001  (-0.000218  0.000193 -0.000677)
  8:    357.58   0.000035    0.18  0.000030  ( 0.001568  0.005217  0.000864)
  9:    729.41   0.000988    4.99  0.000423  ( 0.006432 -0.004949  0.018890)
 10:    868.90   0.000248    1.25  0.000089  (-0.002737 -0.008910 -0.001432)
 11:    875.76   0.000000    0.00  0.000000  (-0.000061  0.000034  0.000018)
 12:    896.93   0.000478    2.41  0.000166  ( 0.011691 -0.002838 -0.004638)
 13:   1056.96   0.000059    0.30  0.000017  ( 0.003796 -0.000893 -0.001512)
 14:   1130.74   0.000303    1.53  0.000084  (-0.002643 -0.008642 -0.001414)
 15:   1155.23   0.000111    0.56  0.000030  ( 0.001693 -0.001363  0.005017)
 16:   1261.82   0.000000    0.00  0.000000  ( 0.000040  0.000004 -0.000044)
 17:   1303.35   0.000754    3.81  0.000181  ( 0.012192 -0.002877 -0.004864)
 18:   1345.86   0.001302    6.58  0.000302  ( 0.015771 -0.003725 -0.006268)
 19:   1353.86   0.000290    1.46  0.000067  ( 0.002346  0.007728  0.001255)
 20:   1410.63   0.000000    0.00  0.000000  ( 0.000013 -0.000006 -0.000002)
 21:   1412.97   0.000003    0.02  0.000001  (-0.000233 -0.000774 -0.000137)
 22:   1421.69   0.000302    1.53  0.000066  ( 0.007365 -0.001737 -0.003015)
 23:   1428.74   0.002466   12.46  0.000539  (-0.007210  0.005468 -0.021371)
 24:   1435.95   0.000839    4.24  0.000182  ( 0.003860  0.012781  0.002034)
 25:   2960.54   0.006289   31.78  0.000663  (-0.023309  0.005674  0.009350)
 26:   2961.54   0.001532    7.74  0.000161  (-0.003779 -0.011988 -0.001852)
 27:   2963.41   0.007804   39.44  0.000822  ( 0.008228  0.027129  0.004264)
 28:   2998.45   0.001342    6.78  0.000140  ( 0.003644 -0.002805  0.010885)
 29:   3041.74   0.000004    0.02  0.000000  (-0.000275 -0.000257 -0.000522)
 30:   3048.31   0.013516   68.31  0.001384  (-0.012126  0.009118 -0.033963)
 31:   3054.17   0.003823   19.32  0.000391  (-0.016654  0.006400  0.008503)
 32:   3055.31   0.006751   34.12  0.000690  ( 0.009203  0.024379  0.003250)

* The epsilon (eps) is given for a Dirac delta lineshape.
** The dipole moment derivative (T) already includes vibrational overlap.

The first frequency considered to be a vibration is 6
The total number of vibrations considered is 27


--------------------------
THERMOCHEMISTRY AT 298.15K
--------------------------

Temperature         ...   298.15 K
Pressure            ...     1.00 atm
Total Mass          ...    44.10 AMU
Quasi RRHO          ...     True
Cut-Off Frequency   ...     1.00 cm^-1

Throughout the following assumptions are being made:
  (1) The electronic state is orbitally nondegenerate
  (2) There are no thermally accessible electronically excited states
  (3) Hindered rotations indicated by low frequency modes are not
      treated as such but are treated as vibrations and this may
      cause some error
  (4) All equations used are the standard statistical mechanics
      equations for an ideal gas
  (5) All vibrations are strictly harmonic

freq.     226.71  E(vib)   ...       0.33 
freq.     272.93  E(vib)   ...       0.29 
freq.     357.58  E(vib)   ...       0.22 
freq.     729.41  E(vib)   ...       0.06 
freq.     868.90  E(vib)   ...       0.04 
freq.     875.76  E(vib)   ...       0.04 
freq.     896.93  E(vib)   ...       0.03 
freq.    1056.96  E(vib)   ...       0.02 
freq.    1130.74  E(vib)   ...       0.01 
freq.    1155.23  E(vib)   ...       0.01 
freq.    1261.82  E(vib)   ...       0.01 
freq.    1303.35  E(vib)   ...       0.01 
freq.    1345.86  E(vib)   ...       0.01 
freq.    1353.86  E(vib)   ...       0.01 
freq.    1410.63  E(vib)   ...       0.00 
freq.    1412.97  E(vib)   ...       0.00 
freq.    1421.69  E(vib)   ...       0.00 
freq.    1428.74  E(vib)   ...       0.00 
freq.    1435.95  E(vib)   ...       0.00 
freq.    2960.54  E(vib)   ...       0.00 
freq.    2961.54  E(vib)   ...       0.00 
freq.    2963.41  E(vib)   ...       0.00 
freq.    2998.45  E(vib)   ...       0.00 
freq.    3041.74  E(vib)   ...       0.00 
freq.    3048.31  E(vib)   ...       0.00 
freq.    3054.17  E(vib)   ...       0.00 
freq.    3055.31  E(vib)   ...       0.00 

------------
INNER ENERGY
------------

The inner energy is: U= E(el) + E(ZPE) + E(vib) + E(rot) + E(trans)
    E(el)   - is the total energy from the electronic structure calculation
              = E(kin-el) + E(nuc-el) + E(el-el) + E(nuc-nuc)
    E(ZPE)  - the the zero temperature vibrational energy from the frequency calculation
    E(vib)  - the the finite temperature correction to E(ZPE) due to population
              of excited vibrational states
    E(rot)  - is the rotational thermal energy
    E(trans)- is the translational thermal energy

Summary of contributions to the inner energy U:
Electronic energy                ...   -118.87057886 Eh
Zero point energy                ...      0.10030656 Eh      62.94 kcal/mol
Thermal vibrational correction   ...      0.00175215 Eh       1.10 kcal/mol
Thermal rotational correction    ...      0.00141627 Eh       0.89 kcal/mol
Thermal translational correction ...      0.00141627 Eh       0.89 kcal/mol
-----------------------------------------------------------------------
Total thermal energy                   -118.76568761 Eh


Summary of corrections to the electronic energy:
(perhaps to be used in another calculation)
Total thermal correction                  0.00458469 Eh       2.88 kcal/mol
Non-thermal (ZPE) correction              0.10030656 Eh      62.94 kcal/mol
-----------------------------------------------------------------------
Total correction                          0.10489125 Eh      65.82 kcal/mol


--------
ENTHALPY
--------

The enthalpy is H = U + kB*T
                kB is Boltzmann's constant
Total thermal energy              ...   -118.76568761 Eh 
Thermal Enthalpy correction       ...      0.00094421 Eh       0.59 kcal/mol
-----------------------------------------------------------------------
Total Enthalpy                    ...   -118.76474340 Eh


Note: Only C1 symmetry has been detected, increase convergence thresholds 
      if your molecule has a higher symmetry. Symmetry factor of 1.0 is   
      used for the rotational entropy correction. 
 

Note: Rotational entropy computed according to Herzberg 
Infrared and Raman Spectra, Chapter V,1, Van Nostrand Reinhold, 1945 
Point Group:  C1, Symmetry Number:   1  
Rotational constants in cm-1:     0.973925     0.276698     0.245615 

Vibrational entropy computed according to the QRRHO of S. Grimme
Chem.Eur.J. 2012 18 9955 using a reference frequency of 100.0 cm-1


-------
ENTROPY
-------

The entropy contributions are T*S = T*(S(el)+S(vib)+S(rot)+S(trans))
     S(el)   - electronic entropy
     S(vib)  - vibrational entropy
     S(rot)  - rotational entropy
     S(trans)- translational entropy
The entropies will be listed as multiplied by the temperature to get
units of energy

Electronic entropy                ...      0.00000000 Eh      0.00 kcal/mol
Vibrational entropy               ...      0.00271728 Eh      1.71 kcal/mol
Rotational entropy                ...      0.01079265 Eh      6.77 kcal/mol
Translational entropy             ...      0.01771163 Eh     11.11 kcal/mol
-----------------------------------------------------------------------
Final entropy term                ...      0.03122156 Eh     19.59 kcal/mol

In case the symmetry of your molecule has not been determined correctly
or in case you have a reason to use a different symmetry number we print 
out the resulting rotational entropy values for sn=1,12:

 non-linear molecules -----------------------------------
|  sn= 1 | S(rot)=       0.01079265 Eh      6.77 kcal/mol|
|  sn= 2 | S(rot)=       0.01013819 Eh      6.36 kcal/mol|
|  sn= 3 | S(rot)=       0.00975536 Eh      6.12 kcal/mol|
|  sn= 4 | S(rot)=       0.00948374 Eh      5.95 kcal/mol|
|  sn= 5 | S(rot)=       0.00927305 Eh      5.82 kcal/mol|
|  sn= 6 | S(rot)=       0.00910090 Eh      5.71 kcal/mol|
|  sn= 7 | S(rot)=       0.00895536 Eh      5.62 kcal/mol|
|  sn= 8 | S(rot)=       0.00882928 Eh      5.54 kcal/mol|
|  sn= 9 | S(rot)=       0.00871807 Eh      5.47 kcal/mol|
|  sn=10 | S(rot)=       0.00861859 Eh      5.41 kcal/mol|
|  sn=11 | S(rot)=       0.00852860 Eh      5.35 kcal/mol|
|  sn=12 | S(rot)=       0.00844645 Eh      5.30 kcal/mol|
 linear molecules ---------------------------------------
|  Dinfh | S(rot)=       0.00665143 Eh      4.17 kcal/mol|
|  Cinfv | S(rot)=       0.00730588 Eh      4.58 kcal/mol|
 --------------------------------------------------------


-------------------
GIBBS FREE ENERGY
-------------------

The Gibbs free energy is G = H - T*S

Total enthalpy                    ...   -118.76474340 Eh 
Total entropy correction          ...     -0.03122156 Eh    -19.59 kcal/mol
-----------------------------------------------------------------------
Final Gibbs free energy         ...   -118.79596495 Eh

For completeness - the Gibbs free energy minus the electronic energy
G-E(el)                           ...      0.07461390 Eh     46.82 kcal/mol


Maximum memory used throughout the entire PROP-calculation: 18.7 MB

--------------------------------
SUGGESTED CITATIONS FOR THIS RUN
--------------------------------

Below you find a list of papers that are relevant to this ORCA run
We neither can nor want to force you to cite these papers, but we appreciate if you do
You receive ORCA, which is the product of decades of hard work by many enthusiastic individuals, for free
The only thing we kindly ask in return is that you cite our papers,
We deeply appreciate it, if you show your appreciation for ORCA by not just citing the generic ORCA reference.

Please note that relegating all ORCA citations to the supporting information does *not* help us.
SI sections are not indexed - citations you put there will not count into any citation statistics
But we need these citations in order to attract the funding resources that allow us to do what we are doing

Therefore, if you are a happy ORCA user, please consider citing a few of the papers listed below in the main body of your paper

In addition to the list printed below, the program has created the file 002.bibtex that contains the list in bibtex format
You can import this file easily into all common literature databanks and citation aid programs


List of essential papers. We consider these as the minimum necessary citations

  1. Neese, F.
     Software update: the ORCA program system, version 6.0
     WIRES Comput. Molec. Sci. 2025 15(1), e70019
     doi.org/10.1002/wcms.7019

List of papers to cite with high priority. The work reported in these papers was absolutely
necessary for this run to complete.
Our perspective: the developers of density functionals and basis sets usually get cited in chemistry papers
Good! But without the algorithms to do something with them, the functionals or basis sets would not do anything.
Hence, in our opinion, the algorithm design and method developments papers are equally worthy of getting cited

  1. Neese, F.
     An improvement of the resolution of the identity approximation for the formation of the Coulomb matrix
     J. Comp. Chem. 2003 24(14), 1740-1747
     doi.org/10.1002/jcc.10318
  2. Bykov, D.; Petrenko, T.; Izsak, R.; Kossmann, S.; Becker, U.; Valeev, E.; Neese, F.
     Efficient implementation of the analytic second derivatives of Hartree-Fock and hybrid DFT energies: a detailed analysis of different approximations
     Molec. Phys. 2015 113 , 1961-1977
     doi.org/10.1080/00268976.2015.1025114
  3. Neese, F.
     The SHARK Integral Generation and Digestion System
     J. Comp. Chem. 2022 44(3), 381
     doi.org/10.1002/jcc.26942

List of suggested additional citations. These are papers that are important in the 'surrounding' of 
of this run, or papers that preceded the highly important papers. If you like your results we are grateful for a citation.

  1. Neese, F.
     The ORCA program system
     WIRES Comput. Molec. Sci. 2012 2(1), 73-78
     doi.org/10.1002/wcms.81
  2. Neese, F.
     Software update: the ORCA program system, version 4.0
     WIRES Comput. Molec. Sci. 2018 8(1), 1-6
     doi.org/10.1002/wcms.1327
  3. Neese, F.; Wennmohs, F.; Becker, U.; Riplinger, C.
     The ORCA quantum chemistry program package
     J. Chem. Phys. 2020 152(22), 224108
     doi.org/10.1063/5.0004608
  4. Neese, F.
     Software update: The ORCA program system—Version 5.0
     WIRES Comput. Molec. Sci. 2022 12(1), e1606
     doi.org/10.1002/wcms.1606

List of optional additional citations

  1. Neese, F.
     Approximate second-order SCF convergence for spin unrestricted wavefunctions
     Chem. Phys. Lett. 2000 325(1-3), 93-98
     doi.org/10.1016/s0009-2614(00)00662-x

Timings for individual modules:

Sum of individual times          ...      137.452 sec (=   2.291 min)
Startup calculation              ...        5.625 sec (=   0.094 min)   4.1 %
SCF iterations                   ...       36.018 sec (=   0.600 min)  26.2 %
Property integrals               ...       30.776 sec (=   0.513 min)  22.4 %
SCF Response                     ...       15.205 sec (=   0.253 min)  11.1 %
Property calculations            ...       27.406 sec (=   0.457 min)  19.9 %
SCF Gradient evaluation          ...       22.347 sec (=   0.372 min)  16.3 %
Geometry relaxation              ...        0.075 sec (=   0.001 min)   0.1 %
                             ****ORCA TERMINATED NORMALLY****
TOTAL RUN TIME: 0 days 0 hours 2 minutes 18 seconds 942 msec
