
                                 *****************
                                 * O   R   C   A *
                                 *****************

                                            #,                                       
                                            ###                                      
                                            ####                                     
                                            #####                                    
                                            ######                                   
                                           ########,                                 
                                     ,,################,,,,,                         
                               ,,#################################,,                 
                          ,,##########################################,,             
                       ,#########################################, ''#####,          
                    ,#############################################,,   '####,        
                  ,##################################################,,,,####,       
                ,###########''''           ''''###############################       
              ,#####''   ,,,,##########,,,,          '''####'''          '####       
            ,##' ,,,,###########################,,,                        '##       
           ' ,,###''''                  '''############,,,                           
         ,,##''                                '''############,,,,        ,,,,,,###''
      ,#''                                            '''#######################'''  
     '                                                          ''''####''''         
             ,#######,   #######,   ,#######,      ##                                
            ,#'     '#,  ##    ##  ,#'     '#,    #''#        ,####,    ,#,          
            ##       ##  ##   ,#'  ##            #'  '#       #'       ,# #          
            ##       ##  #######   ##           ,######,      #####,      #          
            '#,     ,#'  ##    ##  '#,     ,#' ,#      #,     #,   #      #          
             '#######'   ##     ##  '#######'  #'      '#     '####' #    #          



                #########################################################
                #                        -***-                          #
                #          Department of theory and spectroscopy        #
                #                                                       #
                #                      Frank Neese                      #
                #                                                       #
                #     Directorship, Architecture, Infrastructure        #
                #                    SHARK, DRIVERS                     #
                #        Core code/Algorithms in most modules           #
                #                                                       #
                #        Max Planck Institute fuer Kohlenforschung      #
                #                Kaiser Wilhelm Platz 1                 #
                #                 D-45470 Muelheim/Ruhr                 #
                #                      Germany                          #
                #                                                       #
                #                  All rights reserved                  #
                #                        -***-                          #
                #########################################################


                         Program Version 6.1.0  -  RELEASE   -


 With contributions from (in alphabetic order):
[Max-Planck-Institut fuer Kohlenforschung]                               
  Daniel Aravena         : Magnetic Suceptibility                        
  Michael Atanasov       : Ab Initio Ligand Field Theory (pilot matlab implementation)
  Alexander A. Auer      : GIAO ZORA, VPT2 properties, NMR spectrum      
  Ute Becker             : All parallelization in ORCA, NUMFREQ, NUMCALC 
  Giovanni Bistoni       : ED, misc. LED, open-shell LED, HFLD           
  Dmytro Bykov           : pre 5.0 version of the SCF Hessian            
  Marcos Casanova-Páez   : Triplet and SCS-CIS(D). UHF-(DLPNO)-IP/EA/STEOM-CCSD. UHF-CVS-IP/STEOM-CCSD   
  Vijay G. Chilkuri      : MRCI spin determinant printing, contributions to CSF-ICE 
  Pauline Colinet        : FMM embedding                                 
  Dipayan Datta          : RHF DLPNO-CCSD density                        
  Achintya Kumar Dutta   : EOM-CC, STEOM-CC                              
  Nicolas Foglia         : Exact transition moments, OPA infrastructure, MCD improvements    
  Dmitry Ganyushin       : Spin-Orbit,Spin-Spin,Magnetic field MRCI      
  Miquel Garcia-Rates    : C-PCM and meta-GGA Hessian, CCSD/C-PCM, Gaussian charge scheme 
  Tiago L. C. Gouveia    : GS-ROHF, GS-ROCIS                             
  Yang Guo               : DLPNO-NEVPT2, F12-NEVPT2, CIM, IAO-localization        
  Andreas Hansen         : Spin unrestricted coupled pair/coupled cluster methods 
  Ingolf Harden          : AUTO-CI MPn and infrastructure                
  Benjamin Helmich-Paris : MC-RPA, TRAH-(SCF,CASSCF), AVAS, COSX integrals, SCF dyn. polar., MC-PDFT, srDFT 
  Lee Huntington         : MR-EOM, pCC                                   
  Robert Izsak           : Overlap fitted RIJCOSX, COSX-SCS-MP3, EOM     
  Riya Kayal             : Wick's Theorem for AUTO-CI, AUTO-CI UHF-CCSDT 
  Emily Kempfer          : AUTO-CI RHF CISDT and CCSDT, approximate NEVPT4
  Christian Kollmar      : KDIIS, OOCD, Brueckner-CCSD(T), CCSD density, CASPT2, CASPT2-K, improved NEVPT2 
  Axel Koslowski         : Symmetry handling                             
  Simone Kossmann        : meta-GGA functionals, TD-DFT gradient, OOMP2, (MP2 Hessian; deprecated post 5.0) 
  Lucas Lang             : DCDCAS, Hyperfine gauge corrections, ICE-SOC+SSC
  Marvin Lechner         : AUTO-CI (C++ implementation), FIC-MRCC        
  Spencer Leger          : CASSCF response                               
  Dagmar Lenk            : GEPOL surface, SMD, ORCA-2-JSON               
  Dimitrios Liakos       : Extrapolation schemes; Compound Job, Property file
  Dimitrios Manganas     : Further ROCIS development; embedding schemes. LFT, Crystal Embedding 
  Dimitrios Pantazis     : SARC Basis sets                               
  Anastasios Papadopoulos: AUTO-CI, single reference methods and gradients 
  Taras Petrenko         : pre 6.0 DFT Hessian and TD-DFT gradient,  ECA, NRVS 
  Petra Pikulova         : Analytic Raman intensities                    
  Peter Pinski           : DLPNO-MP2, DLPNO-MP2 Gradient                 
  Shashank Vittal Rao    : ES-AILFT, MagRelax                            
  Christoph Reimann      : Effective Core Potentials                     
  Marius Retegan         : Local ZFS, SOC                                
  Christoph Riplinger    : Optimizer, TS searches, QM/MM, DLPNO-CCSD(T), (RO)-DLPNO pert. Triples 
  Michael Roemelt        : Original ROCIS implementation, recursive CI coupling coefficients
  Masaaki Saitow         : Open-shell DLPNO-CCSD energy and density      
  Barbara Sandhoefer     : DKH picture change effects                    
  Yorick L. A. Schmerwitz: GMF and freeze-and-release deltaSCF, NEB S-IDPP initial path                    
  Kantharuban Sivalingam : CASSCF convergence/infrastructure, NEVPT2, NEVPT3, NEVPT4(SD), FIC-MRCI and CEPA variants
  Bernardo de Souza      : ESD, SOC TD-DFT                               
  Georgi L. Stoychev     : AutoAux, RI-MP2 NMR, DLPNO-MP2 response, X2C  
  Van Anh Tran           : RI-MP2 g-tensors                              
  Willem Van den Heuvel  : Paramagnetic NMR                              
  Zikuan Wang            : NOTCH, Electric field optimization            
  Frank Wennmohs         : Technical directorship and infrastructure     
  Hang Xu                : AUTO-CI-Response properties                   
                                                                         
[FACCTs GmbH]                                                            
  Markus Bursch, Nicolas Foglia, Miquel Garcia-Rates, Ingolf Harden, Hagen Neugebauer, Anastasios Papadopoulos, 
  Christoph Riplinger, Bernardo de Souza, Georgi L. Stoychev                                                    
                                                                 
  APM, various basis sets, CI-OPT, improved COSX, DLPNO-Multilevel,           
  DOCKER, DRACO, updates on ESD, Fragmentator, GOAT, IRC, LR-CPCM, L-BFGS, MBIS, meta-GGA TD-DFT gradient, ML-optimized integration grids, 
  MM, NACMEs, nearIR, NEB, NEB-TS, NL-DFT gradient (VV10), 2- and 3-layer-ONIOM, interface openCOSMO-RS, QMMM,   
  Crystal-QMMM, RESP, rigid body optimization, SF, symmetry and pop. for TD-DFT, various functionals, SOLVATOR                                   
                                                                         
[Other institutions]                                                     
  V. Asgeirsson          : NEB                                           
  Christoph Bannwarth    : sTDA-DFT, sTD-DFT, PBEh-3c, B97-3c, D3        
  Giovanni Bistoni       : ETS/NOCV, ADLD/ADEX, COVALED                  
  Martin Brehm           : Molecular dynamics                            
  Ronald Cardenas        : ETS/NOCV                                      
  Martina Colucci        : COVALED                                       
  Sebastian Ehlert       : rSCAN, r2SCAN, r2SCAN-3c, D4, dhf basis sets  
  Marvin Friede          : D4 for Fr, Ra, Ac-Lr                          
  Lars Goerigk           : TD-DFT with DH, B97 family of functionals     
  Stefan Grimme          : VdW corrections, initial TS optimization, DFT functionals, gCP, sTDA/sTD-DF 
  Waldemar Hujo          : DFT-NL                                        
  H. Jonsson             : NEB                                           
  Holger Kruse           : gCP                                           
  Marcel Mueller         : wB97X-3c, vDZP basis set                      
  Hagen Neugebauer       : wr2SCAN, Native XTB                           
  Gianluca Regni         : ADLD/ADEX                                     
  Tobias Risthaus        : pre 6.0 range-separated hybrid DFT and stability analysis
  Lukas Wittmann         : regularized MP2, r2SCAN double-hybrids, wr2SCAN        
                                                                         
We gratefully acknowledge several colleagues who have allowed us to      
interface, adapt or use parts of their codes:                            
  Ed Valeev, F. Pavosevic, A. Kumar             : LibInt (2-el integral package), F12 methods 
  Garnet Chan, S. Sharma, J. Yang, R. Olivares  : DMRG                   
  Ulf Ekstrom                                   : XCFun DFT Library      
  Mihaly Kallay                                 : mrcc  (arbitrary order and MRCC methods)
  Frank Weinhold                                : gennbo (NPA and NBO analysis)           
  Simon Mueller                                 : openCOSMO-RS                            
  Christopher J. Cramer and Donald G. Truhlar   : smd solvation model                     
  S Lehtola, MJT Oliveira, MAL Marques          : LibXC Library                           
  Liviu Ungur et al                             : ANISO software                          


 Your calculation uses the libint2 library for the computation of 2-el integrals
 For citations please refer to: http://libint.valeyev.net

 Your ORCA version has been built with support for libXC version: 7.0.0
 For citations please refer to: https://libxc.gitlab.io

 This ORCA versions uses:
   CBLAS   interface :  Fast vector & matrix operations
   LAPACKE interface :  Fast linear algebra routines
   Shared memory     :  Shared parallel matrices


  ***********************************
  * Starting time: Thu Dec 25 20:49:47 2025
  * Host name:     FREDDY-YOGA
  * Process ID:    16488
  * Working dir.:  c:\Users\SellIT\Desktop\Coding\IR_ORCA_pipeline\orca_inputs\001
  ***********************************

Warning: RI is on but no J-basis has been assigned. Assigning Def2/J (nothing to worry about!)
================================================================================

----- Orbital basis set information -----
Your calculation utilizes the basis: def2-SVP
   F. Weigend and R. Ahlrichs, Phys. Chem. Chem. Phys. 7, 3297 (2005).

----- AuxJ basis set information -----
Your calculation utilizes the auxiliary basis: def2/J
   H-Rn: F. Weigend, Phys. Chem. Chem. Phys. 8, 1057 (2006).
   Fr-Lr: K. Eichkorn, F. Weigend, O. Treutler, R. Ahlrichs; Theor. Chem. Acc. 97, 119 (1997).

================================================================================
                                        WARNINGS
                       Please study these warnings very carefully!
================================================================================



WARNING: Found flag for RIJCOSX approximation but no HF exchange needed!
  ===> : RIJCOSX  will be disabled and Split-RI-J is turned on

WARNING: Geometry Optimization
  ===> : Switching off AutoStart
         For restart on a previous wavefunction, please use MOREAD

================================================================================
                                       INPUT FILE
================================================================================
NAME = 001.inp
|  1> ! PBE def2-SVP Opt Freq RIJCOSX
|  2> 
|  3> * xyz 0 1
|  4> C      0.755760   -0.019383    0.005611
|  5> C     -0.755760    0.019382   -0.005611
|  6> H      1.136959    0.144636    1.017938
|  7> H      1.117982   -0.990111   -0.345816
|  8> H      1.165042    0.757765   -0.646730
|  9> H     -1.136959   -0.144643   -1.017937
| 10> H     -1.165043   -0.757761    0.646736
| 11> H     -1.117982    0.990114    0.345809
| 12> *
| 13> 
| 14>                          ****END OF INPUT****
================================================================================

                       *****************************
                       * Geometry Optimization Run *
                       *****************************

Geometry optimization settings:
Update method            Update   .... BFGS
Choice of coordinates    CoordSys .... (2022) Redundant Internals
Initial Hessian          InHess   .... Almloef's Model
Max. no of cycles        MaxIter  .... 50

Convergence Tolerances:
Energy Change            TolE     ....  5.0000e-06 Eh
Max. Gradient            TolMAXG  ....  3.0000e-04 Eh/bohr
RMS Gradient             TolRMSG  ....  1.0000e-04 Eh/bohr
Max. Displacement        TolMAXD  ....  4.0000e-03 bohr
RMS Displacement         TolRMSD  ....  2.0000e-03 bohr
Strict Convergence                .... False

------------------------------------------------------------------------------
                        ORCA OPTIMIZATION COORDINATE SETUP
------------------------------------------------------------------------------

The optimization will be done in redundant internal coordinates (2022)
Making redundant internal coordinates   ...  (2022 redundants) done
Evaluating the initial hessian          ...  (Almloef) done
Evaluating the coordinates              ...  done
Calculating the B-matrix                .... done
Calculating the G-matrix                .... done
The number of degrees of freedom        ....   25

    -----------------------------------------------------------------
                    Redundant Internal Coordinates


    -----------------------------------------------------------------
         Definition                    Initial Value    Approx d2E/dq
    -----------------------------------------------------------------
      1. B(C   1,C   0)                  1.5121         0.399027   
      2. B(H   2,C   0)                  1.0941         0.354737   
      3. B(H   3,C   0)                  1.0941         0.354738   
      4. B(H   4,C   0)                  1.0941         0.354738   
      5. B(H   5,C   1)                  1.0941         0.354737   
      6. B(H   6,C   1)                  1.0941         0.354737   
      7. B(H   7,C   1)                  1.0941         0.354737   
      8. A(H   2,C   0,H   4)          108.3525         0.289473   
      9. A(C   1,C   0,H   4)          110.5679         0.327046   
     10. A(C   1,C   0,H   2)          110.5679         0.327046   
     11. A(H   3,C   0,H   4)          108.3526         0.289473   
     12. A(H   2,C   0,H   3)          108.3526         0.289473   
     13. A(C   1,C   0,H   3)          110.5680         0.327046   
     14. A(C   0,C   1,H   5)          110.5679         0.327046   
     15. A(H   6,C   1,H   7)          108.3526         0.289473   
     16. A(H   5,C   1,H   7)          108.3525         0.289473   
     17. A(C   0,C   1,H   7)          110.5680         0.327046   
     18. A(H   5,C   1,H   6)          108.3526         0.289473   
     19. A(C   0,C   1,H   6)          110.5680         0.327046   
     20. D(H   5,C   1,C   0,H   3)    -59.9996         0.012635   
     21. D(H   5,C   1,C   0,H   4)     60.0004         0.012635   
     22. D(H   6,C   1,C   0,H   2)    -59.9996         0.012635   
     23. D(H   6,C   1,C   0,H   3)     60.0004         0.012635   
     24. D(H   6,C   1,C   0,H   4)   -179.9996         0.012635   
     25. D(H   5,C   1,C   0,H   2)   -179.9997         0.012635   
    -----------------------------------------------------------------

Number of atoms                         .... 8
Number of degrees of freedom            .... 25


         *************************************************************
         *                GEOMETRY OPTIMIZATION CYCLE   1            *
         *************************************************************
---------------------------------
CARTESIAN COORDINATES (ANGSTROEM)
---------------------------------
  C      0.755760   -0.019383    0.005611
  C     -0.755760    0.019382   -0.005611
  H      1.136959    0.144636    1.017938
  H      1.117982   -0.990111   -0.345816
  H      1.165042    0.757765   -0.646730
  H     -1.136959   -0.144643   -1.017937
  H     -1.165043   -0.757761    0.646736
  H     -1.117982    0.990114    0.345809

----------------------------
CARTESIAN COORDINATES (A.U.)
----------------------------
  NO LB      ZA    FRAG     MASS         X           Y           Z
   0 C     6.0000    0    12.011    1.428179   -0.036629    0.010603
   1 C     6.0000    0    12.011   -1.428179    0.036627   -0.010603
   2 H     1.0000    0     1.008    2.148541    0.273322    1.923624
   3 H     1.0000    0     1.008    2.112680   -1.871039   -0.653498
   4 H     1.0000    0     1.008    2.201610    1.431968   -1.222143
   5 H     1.0000    0     1.008   -2.148541   -0.273336   -1.923622
   6 H     1.0000    0     1.008   -2.201612   -1.431961    1.222154
   7 H     1.0000    0     1.008   -2.112680    1.871044    0.653484

--------------------------------
INTERNAL COORDINATES (ANGSTROEM)
--------------------------------
 C      0   0   0     0.000000000000     0.00000000     0.00000000
 C      1   0   0     1.512058652602     0.00000000     0.00000000
 H      1   2   0     1.094084487090   110.56793945     0.00000000
 H      1   2   3     1.094083435391   110.56797140   120.00003101
 H      1   2   3     1.094083886048   110.56792042   240.00005805
 H      2   1   3     1.094084461320   110.56793094   180.00034011
 H      2   1   3     1.094084286034   110.56797315   300.00037818
 H      2   1   3     1.094084735982   110.56795449    60.00041367

---------------------------
INTERNAL COORDINATES (A.U.)
---------------------------
 C      0   0   0     0.000000000000     0.00000000     0.00000000
 C      1   0   0     2.857376751844     0.00000000     0.00000000
 H      1   2   0     2.067520047972   110.56793945     0.00000000
 H      1   2   3     2.067518060549   110.56797140   120.00003101
 H      1   2   3     2.067518912166   110.56792042   240.00005805
 H      2   1   3     2.067519999274   110.56793094   180.00034011
 H      2   1   3     2.067519668031   110.56797315   300.00037818
 H      2   1   3     2.067520518309   110.56795449    60.00041367

---------------------
BASIS SET INFORMATION
---------------------
There are 2 groups of distinct atoms

 Group   1 Type C   : 7s4p1d contracted to 3s2p1d pattern {511/31/1}
 Group   2 Type H   : 4s1p contracted to 2s1p pattern {31/1}

Atom   0C    basis set group =>   1
Atom   1C    basis set group =>   1
Atom   2H    basis set group =>   2
Atom   3H    basis set group =>   2
Atom   4H    basis set group =>   2
Atom   5H    basis set group =>   2
Atom   6H    basis set group =>   2
Atom   7H    basis set group =>   2
---------------------------------
AUXILIARY/J BASIS SET INFORMATION
---------------------------------
There are 2 groups of distinct atoms

 Group   1 Type C   : 12s5p4d2f1g contracted to 6s4p3d1f1g pattern {711111/2111/211/2/1}
 Group   2 Type H   : 5s2p1d contracted to 3s1p1d pattern {311/2/1}

Atom   0C    basis set group =>   1
Atom   1C    basis set group =>   1
Atom   2H    basis set group =>   2
Atom   3H    basis set group =>   2
Atom   4H    basis set group =>   2
Atom   5H    basis set group =>   2
Atom   6H    basis set group =>   2
Atom   7H    basis set group =>   2
------------------------------------------------------------------------------
                             ORCA STARTUP CALCULATIONS
                           -- RI-GTO INTEGRALS CHOSEN --
------------------------------------------------------------------------------
------------------------------------------------------------------------------
                   ___                                                        
                  /   \      - P O W E R E D   B Y -                         
                 /     \                                                     
                 |  |  |   _    _      __       _____    __    __             
                 |  |  |  | |  | |    /  \     |  _  \  |  |  /  |          
                  \  \/   | |  | |   /    \    | | | |  |  | /  /          
                 / \  \   | |__| |  /  /\  \   | |_| |  |  |/  /          
                |  |  |   |  __  | /  /__\  \  |    /   |      \           
                |  |  |   | |  | | |   __   |  |    \   |  |\   \          
                \     /   | |  | | |  |  |  |  | |\  \  |  | \   \       
                 \___/    |_|  |_| |__|  |__|  |_| \__\ |__|  \__/        
                                                                              
                      - O R C A' S   B I G   F R I E N D -                    
                                      &                                       
                       - I N T E G R A L  F E E D E R -                       
                                                                              
 v1 FN, 2020, v2 2021, v3 2022-2024                                           
------------------------------------------------------------------------------


----------------------
SHARK INTEGRAL PACKAGE
----------------------

Number of atoms                             ...      8
Number of basis functions                   ...     58
Number of shells                            ...     30
Maximum angular momentum                    ...      2
Integral batch strategy                     ... SHARK/LIBINT Hybrid
RI-J (if used) integral strategy            ... SPLIT-RIJ (Revised 2003 algorithm where possible)
Printlevel                                  ...      1
Contraction scheme used                     ... SEGMENTED contraction
Prescreening option                         ... SCHWARTZ
   Thresh                                   ... 2.500e-11
   Tcut                                     ... 2.500e-12
   Tpresel                                  ... 2.500e-12 
Coulomb Range Separation                    ... NOT USED
Exchange Range Separation                   ... NOT USED
Multipole approximations                    ... NOT USED
Finite Nucleus Model                        ... NOT USED
CABS basis                                  ... NOT available
Auxiliary Coulomb fitting basis             ... AVAILABLE
   # of basis functions in Aux-J            ...    164
   # of shells in Aux-J                     ...     60
   Maximum angular momentum in Aux-J        ...      4
Auxiliary J/K fitting basis                 ... NOT available
Auxiliary Correlation fitting basis         ... NOT available
Auxiliary 'external' fitting basis          ... NOT available

Checking pre-screening integrals            ... done (  0.1 sec) Dimension = 30
   => SHARK Basis and OBASIS are compatible. Storing Pre-screening
Shell pair information
Shell pair cut-off parameter TPreSel        ...   2.5e-12
Total number of shell pairs                 ...       465
Shell pairs after pre-screening             ...       465
Total number of primitive shell pairs       ...      1529
Primitive shell pairs kept                  ...      1388
          la=0 lb=0:    171 shell pairs
          la=1 lb=0:    180 shell pairs
          la=1 lb=1:     55 shell pairs
          la=2 lb=0:     36 shell pairs
          la=2 lb=1:     20 shell pairs
          la=2 lb=2:      3 shell pairs

Checking whether 4 symmetric matrices of dimension 58 fit in memory
:Max Core in MB      =   4096.00
 MB in use           =      3.67
 MB left             =   4092.33
 MB needed           =      0.05
 Data fit in memory  = YES
Calculating RI/J V-Matrix + Cholesky decomp.... done (  0.1 sec)
Calculating Nuclear repulsion               ... done (  0.0 sec) ENN=     42.426871080450 Eh

Diagonalization of the overlap matrix:
Smallest eigenvalue                        ... 4.211e-03
Time for diagonalization                   ...    0.012 sec
Threshold for overlap eigenvalues          ... 1.000e-07
Number of eigenvalues below threshold      ... 0
Time for construction of square roots      ...    0.004 sec
Total time needed                          ...    0.017 sec

-------------------
DFT GRID GENERATION
-------------------

General Integration Accuracy     IntAcc      ... 4.388
Radial Grid Type                 RadialGrid  ... OptM3 with GC (2021)
Angular Grid (max. ang.)         AngularGrid ... 4 (Lebedev-302)
Angular grid pruning method      GridPruning ... 4 (adaptive)
Weight generation scheme         WeightScheme... mBecke (2022)
Basis function cutoff            BFCut       ... 1.0000e-11
Integration weight cutoff        WCut        ... 1.0000e-14
Partially contracted basis set               ... off
Rotationally invariant grid construction     ... off
Angular grids for H and He will be reduced by one unit

Total number of grid points                  ...    31654
Total number of batches                      ...      498
Average number of points per batch           ...       63
Average number of grid points per atom       ...     3957
Grids setup in   0.4 sec
Initializing property integral containers    ... done (  0.0 sec)

SHARK setup successfully completed in   0.9 seconds

Maximum memory used throughout the entire STARTUP-calculation: 13.3 MB
-------------------------------------------------------------------------------
                                 ORCA GUESS
                   Start orbitals & Density for SCF / CASSCF
-------------------------------------------------------------------------------

------------
SCF SETTINGS
------------
Hamiltonian:
 Density Functional     Method          .... DFT(GTOs)
 Exchange Functional    Exchange        .... PBE
   PBE kappa parameter   XKappa         ....  0.804000
   PBE mue parameter    XMuePBE         ....  0.219520
 Correlation Functional Correlation     .... PBE
   PBE beta parameter  CBetaPBE         ....  0.066725
 LDA part of GGA corr.  LDAOpt          .... PW91-LDA
 Gradients option       PostSCFGGA      .... off
   NL short-range parameter             ....  6.400000
 RI-approximation to the Coulomb term is turned on
   Number of AuxJ basis functions       .... 164


General Settings:
 Integral files         IntName         .... 001
 Hartree-Fock type      HFTyp           .... RHF
 Total Charge           Charge          ....    0
 Multiplicity           Mult            ....    1
 Number of Electrons    NEL             ....   18
 Basis Dimension        Dim             ....   58
 Nuclear Repulsion      ENuc            ....     42.4268710804 Eh

Convergence Acceleration:
 AO-DIIS                CNVDIIS         .... on
   Start iteration      DIISMaxIt       ....    12
   Startup error        DIISStart       ....  0.200000
   # of expansion vecs  DIISMaxEq       ....     5
   Bias factor          DIISBfac        ....   1.050
   Max. coefficient     DIISMaxC        ....  10.000
 MO-DIIS                CNVKDIIS        .... off
 Trust-Rad. Augm. Hess. CNVTRAH         .... auto
   Auto Start mean grad. ratio tolernc. ....  1.125000
   Auto Start start iteration           ....    50
   Auto Start num. interpolation iter.  ....    10
   Max. Number of Micro iterations      ....    24
   Max. Number of Macro iterations      .... Maxiter - #DIIS iter
   Number of Davidson start vectors     ....     2
   Converg. threshold    (grad. norm)   ....   1.000e-05
   Grad. Scal. Fac. for Micro threshold ....   0.100
   Minimum threshold for Micro iter.    ....   1.000e-02
   NR start threshold (gradient norm)   ....   1.000e-04
   Initial trust radius                 ....   0.400
   Minimum AH scaling param. (alpha)    ....   1.000
   Maximum AH scaling param. (alpha)    .... 1000.000
   Quad. conv. algorithm                .... NR
   White noise on init. David. guess    .... on
   Maximum white noise                  ....   0.010
   Pseudo random numbers                .... off
   Inactive MOs                         .... canonical
   Orbital update algorithm             .... Taylor
   Preconditioner                       .... Diag
   Full preconditioner red. dimension   ....   250
 SOSCF                 CNVSOSCF           .... on
   Start iteration     SOSCFMaxIt         ....   150
   Startup grad/error  SOSCFStart         ....  0.003300
   Hessian update      SOSCFHessUp        .... L-BFGS
   Autom. constraints  SOSCFAutoConstrain .... off
 Level Shifting         CNVShift        .... on
   Level shift para.    LevelShift      ....    0.2500
   Turn off err/grad.   ShiftErr        ....    0.0010
 Zerner damping         CNVZerner       .... off
 Static damping         CNVDamp         .... on
   Fraction old density DampFac         ....    0.7000
   Max. Damping (<1)    DampMax         ....    0.9800
   Min. Damping (>=0)   DampMin         ....    0.0000
   Turn off err/grad.   DampErr         ....    0.1000

SCF Procedure:
 Maximum # iterations   MaxIter         ....   125
 SCF integral mode      SCFMode         .... Direct
   Integral package                     .... SHARK and LIBINT hybrid scheme
 Reset frequency        DirectResetFreq ....    20
 Integral Threshold     Thresh          ....  2.500e-11 Eh
 Primitive CutOff       TCut            ....  2.500e-12 Eh

Convergence Tolerance:
 Convergence Check Mode ConvCheckMode   .... Total+1el-Energy
 Convergence forced     ConvForced      .... 0
 Energy Change          TolE            ....  1.000e-08 Eh
 1-El. energy change                    ....  1.000e-05 Eh
 Orbital Gradient       TolG            ....  1.000e-05
 Orbital Rotation angle TolX            ....  1.000e-05
 DIIS Error             TolErr          ....  5.000e-07

------------------------------
INITIAL GUESS: MODEL POTENTIAL
------------------------------
Loading Hartree-Fock densities                     ... done
Calculating cut-offs                               ... done
Initializing the effective Hamiltonian             ... done
Setting up the integral package (SHARK)            ... done
Starting the Coulomb interaction                   ... done (   0.0 sec)
Making the grid                                    ... done (   0.1 sec)
Mapping shells                                     ... done
Starting the XC term evaluation                    ... done (   0.1 sec)
  promolecular density results
     # of electrons  =     17.997096185
     EX              =    -11.977315599
     EC              =     -0.555521034
     EX+EC           =    -12.532836634
Transforming the Hamiltonian                       ... done (   0.0 sec)
Diagonalizing the Hamiltonian                      ... done (   0.0 sec)
Back transforming the eigenvectors                 ... done (   0.0 sec)
Now organizing SCF variables                       ... done
                      ------------------
                      INITIAL GUESS DONE (   0.2 sec)
                      ------------------
             **** ENERGY FILE WAS UPDATED (001.en.tmp) ****
Finished Guess after   0.3 sec
Maximum memory used throughout the entire GUESS-calculation: 6.1 MB

-------------------------------------------------------------------------------------------
                                      ORCA LEAN-SCF
                              memory conserving SCF solver
-------------------------------------------------------------------------------------------

----------------------------------------D-I-I-S--------------------------------------------
Iteration    Energy (Eh)           Delta-E    RMSDP     MaxDP     DIISErr   Damp  Time(sec)
-------------------------------------------------------------------------------------------
               ***  Starting incremental Fock matrix formation  ***
    1    -79.5448382729461798     0.00e+00  5.61e-03  7.33e-02  1.65e-01  0.700   0.6
    2    -79.5926914529711098    -4.79e-02  4.00e-03  4.11e-02  7.74e-02  0.700   0.6
                               ***Turning on AO-DIIS***
    3    -79.6090172241590039    -1.63e-02  1.60e-03  1.24e-02  2.06e-02  0.700   0.5
    4    -79.6184810898411683    -9.46e-03  2.31e-03  2.05e-02  7.60e-03  0.000   0.5
    5    -79.6401298969463767    -2.16e-02  6.67e-04  5.21e-03  7.59e-03  0.000   0.4
                              *** Initializing SOSCF ***
---------------------------------------S-O-S-C-F--------------------------------------
Iteration    Energy (Eh)           Delta-E    RMSDP     MaxDP     MaxGrad    Time(sec)
--------------------------------------------------------------------------------------
    6    -79.6403818787777595    -2.52e-04  2.56e-04  1.91e-03  1.96e-03     0.4
               *** Restarting incremental Fock matrix formation ***
    7    -79.6404025524326187    -2.07e-05  1.75e-04  1.30e-03  3.59e-04     0.4
    8    -79.6404024611564409     9.13e-08  4.67e-05  6.24e-04  3.51e-04     1.3
    9    -79.6404042626028001    -1.80e-06  2.09e-05  1.56e-04  5.65e-05     0.6
   10    -79.6404042932962852    -3.07e-08  5.17e-06  4.20e-05  2.82e-05     0.5
   11    -79.6404043014609329    -8.16e-09  8.17e-07  5.99e-06  2.24e-06     0.5
                 **** Energy Check signals convergence ****

               *****************************************************
               *                     SUCCESS                       *
               *           SCF CONVERGED AFTER  11 CYCLES          *
               *****************************************************

             **** ENERGY FILE WAS UPDATED (001.en.tmp) ****

----------------
TOTAL SCF ENERGY
----------------

Total Energy       :        -79.64040430173176 Eh           -2167.12558 eV

Components:
Nuclear Repulsion  :         42.42687108044952 Eh            1154.49386 eV
Electronic Energy  :       -122.06727538218129 Eh           -3321.61943 eV
One Electron Energy:       -189.55306188615498 Eh           -5158.00104 eV
Two Electron Energy:         67.48578650397369 Eh            1836.38161 eV

Virial components:
Potential Energy   :       -158.28527225093072 Eh           -4307.16123 eV
Kinetic Energy     :         78.64486794919895 Eh            2140.03565 eV
Virial Ratio       :          2.01265863086166

DFT components:
N(Alpha)           :        8.999997130896 electrons
N(Beta)            :        8.999997130896 electrons
N(Total)           :       17.999994261793 electrons
E(X)               :      -12.374570824701 Eh       
E(C)               :       -0.567474953863 Eh       
E(XC)              :      -12.942045778564 Eh       

---------------
SCF CONVERGENCE
---------------

  Last Energy change         ...    8.1646e-09  Tolerance :   1.0000e-08
  Last MAX-Density change    ...    5.9903e-06  Tolerance :   1.0000e-07
  Last RMS-Density change    ...    8.1695e-07  Tolerance :   5.0000e-09
  Last DIIS Error            ...    1.9584e-03  Tolerance :   5.0000e-07
  Last Orbital Gradient      ...    2.2389e-06  Tolerance :   1.0000e-05
  Last Orbital Rotation      ...    2.5025e-06  Tolerance :   1.0000e-05


----------------
ORBITAL ENERGIES
----------------

  NO   OCC          E(Eh)            E(eV) 
   0   2.0000      -9.882399      -268.9138 
   1   2.0000      -9.882338      -268.9121 
   2   2.0000      -0.675533       -18.3822 
   3   2.0000      -0.540525       -14.7084 
   4   2.0000      -0.385976       -10.5029 
   5   2.0000      -0.385975       -10.5029 
   6   2.0000      -0.322272        -8.7695 
   7   2.0000      -0.294721        -8.0198 
   8   2.0000      -0.294720        -8.0197 
   9   0.0000       0.045536         1.2391 
  10   0.0000       0.094857         2.5812 
  11   0.0000       0.103456         2.8152 
  12   0.0000       0.103458         2.8152 
  13   0.0000       0.135349         3.6830 
  14   0.0000       0.135351         3.6831 
  15   0.0000       0.204157         5.5554 
  16   0.0000       0.387104        10.5336 
  17   0.0000       0.387115        10.5339 
  18   0.0000       0.392015        10.6673 
  19   0.0000       0.483129        13.1466 
*Only the first 10 virtual orbitals were printed.

                    ********************************
                    * MULLIKEN POPULATION ANALYSIS *
                    ********************************

-----------------------
MULLIKEN ATOMIC CHARGES
-----------------------
   0 C :   -0.081093
   1 C :   -0.081094
   2 H :    0.027033
   3 H :    0.027026
   4 H :    0.027035
   5 H :    0.027033
   6 H :    0.027035
   7 H :    0.027026
Sum of atomic charges:    0.0000000

--------------------------------
MULLIKEN REDUCED ORBITAL CHARGES
--------------------------------
  0 C s       :     3.029034  s :     3.029034
      pz      :     1.017724  p :     3.025318
      px      :     0.989883
      py      :     1.017711
      dz2     :     0.004783  d :     0.026741
      dxz     :     0.006124
      dyz     :     0.004115
      dx2y2   :     0.005687
      dxy     :     0.006032

  1 C s       :     3.029035  s :     3.029035
      pz      :     1.017724  p :     3.025318
      px      :     0.989883
      py      :     1.017711
      dz2     :     0.004783  d :     0.026741
      dxz     :     0.006124
      dyz     :     0.004115
      dx2y2   :     0.005687
      dxy     :     0.006032

  2 H s       :     0.949647  s :     0.949647
      pz      :     0.012121  p :     0.023320
      px      :     0.005571
      py      :     0.005628

  3 H s       :     0.949654  s :     0.949654
      pz      :     0.006257  p :     0.023320
      px      :     0.005475
      py      :     0.011588

  4 H s       :     0.949645  s :     0.949645
      pz      :     0.008221  p :     0.023320
      px      :     0.005723
      py      :     0.009377

  5 H s       :     0.949647  s :     0.949647
      pz      :     0.012121  p :     0.023320
      px      :     0.005571
      py      :     0.005628

  6 H s       :     0.949645  s :     0.949645
      pz      :     0.008221  p :     0.023320
      px      :     0.005723
      py      :     0.009377

  7 H s       :     0.949654  s :     0.949654
      pz      :     0.006257  p :     0.023320
      px      :     0.005475
      py      :     0.011588



                     *******************************
                     * LOEWDIN POPULATION ANALYSIS *
                     *******************************

----------------------
LOEWDIN ATOMIC CHARGES
----------------------
   0 C :   -0.075922
   1 C :   -0.075922
   2 H :    0.025307
   3 H :    0.025308
   4 H :    0.025307
   5 H :    0.025307
   6 H :    0.025307
   7 H :    0.025308

-------------------------------
LOEWDIN REDUCED ORBITAL CHARGES
-------------------------------
  0 C s       :     2.837559  s :     2.837559
      pz      :     1.068320  p :     3.167706
      px      :     1.031088
      py      :     1.068299
      dz2     :     0.014022  d :     0.070656
      dxz     :     0.013824
      dyz     :     0.011629
      dx2y2   :     0.017599
      dxy     :     0.013582

  1 C s       :     2.837560  s :     2.837560
      pz      :     1.068320  p :     3.167706
      px      :     1.031088
      py      :     1.068299
      dz2     :     0.014022  d :     0.070656
      dxz     :     0.013824
      dyz     :     0.011629
      dx2y2   :     0.017598
      dxy     :     0.013582

  2 H s       :     0.909015  s :     0.909015
      pz      :     0.035584  p :     0.065678
      px      :     0.016588
      py      :     0.013506

  3 H s       :     0.909015  s :     0.909015
      pz      :     0.015642  p :     0.065678
      px      :     0.016277
      py      :     0.033758

  4 H s       :     0.909015  s :     0.909015
      pz      :     0.022326  p :     0.065678
      px      :     0.017077
      py      :     0.026275

  5 H s       :     0.909015  s :     0.909015
      pz      :     0.035584  p :     0.065678
      px      :     0.016588
      py      :     0.013506

  6 H s       :     0.909015  s :     0.909015
      pz      :     0.022326  p :     0.065678
      px      :     0.017077
      py      :     0.026275

  7 H s       :     0.909015  s :     0.909015
      pz      :     0.015642  p :     0.065677
      px      :     0.016277
      py      :     0.033758



                      *****************************
                      * MAYER POPULATION ANALYSIS *
                      *****************************

  NA   - Mulliken gross atomic population
  ZA   - Total nuclear charge
  QA   - Mulliken gross atomic charge
  VA   - Mayer's total valence
  BVA  - Mayer's bonded valence
  FA   - Mayer's free valence

  ATOM       NA         ZA         QA         VA         BVA        FA
  0 C      6.0811     6.0000    -0.0811     4.0729     4.0729    -0.0000
  1 C      6.0811     6.0000    -0.0811     4.0729     4.0729     0.0000
  2 H      0.9730     1.0000     0.0270     0.9826     0.9826    -0.0000
  3 H      0.9730     1.0000     0.0270     0.9826     0.9826     0.0000
  4 H      0.9730     1.0000     0.0270     0.9826     0.9826     0.0000
  5 H      0.9730     1.0000     0.0270     0.9826     0.9826     0.0000
  6 H      0.9730     1.0000     0.0270     0.9826     0.9826    -0.0000
  7 H      0.9730     1.0000     0.0270     0.9826     0.9826     0.0000

  Mayer bond orders larger than 0.100000
B(  0-C ,  1-C ) :   1.1386 B(  0-C ,  2-H ) :   0.9740 B(  0-C ,  3-H ) :   0.9740 
B(  0-C ,  4-H ) :   0.9740 B(  1-C ,  5-H ) :   0.9740 B(  1-C ,  6-H ) :   0.9740 
B(  1-C ,  7-H ) :   0.9740 

-------
TIMINGS
-------

Total SCF time: 0 days 0 hours 0 min 7 sec 

Total time                  ....       7.013 sec
Sum of individual times     ....       6.377 sec  ( 90.9%)

SCF preparation             ....       0.134 sec  (  1.9%)
Fock matrix formation       ....       5.735 sec  ( 81.8%)
  Startup                   ....       0.016 sec  (  0.3% of F)
  Split-RI-J                ....       0.622 sec  ( 10.8% of F)
  XC integration            ....       5.275 sec  ( 92.0% of F)
    Basis function eval.    ....       1.822 sec  ( 34.5% of XC)
    Density eval.           ....       0.826 sec  ( 15.7% of XC)
    XC-Functional eval.     ....       0.428 sec  (  8.1% of XC)
    XC-Potential eval.      ....       1.093 sec  ( 20.7% of XC)
Diagonalization             ....       0.000 sec  (  0.0%)
Density matrix formation    ....       0.131 sec  (  1.9%)
Total Energy calculation    ....       0.055 sec  (  0.8%)
Population analysis         ....       0.014 sec  (  0.2%)
Orbital Transformation      ....       0.015 sec  (  0.2%)
Orbital Orthonormalization  ....       0.000 sec  (  0.0%)
DIIS solution               ....       0.206 sec  (  2.9%)
SOSCF solution              ....       0.087 sec  (  1.2%)
Finished LeanSCF after   7.0 sec

Maximum memory used throughout the entire LEANSCF-calculation: 6.9 MB

------------------------------------------------------------------------------
                         ORCA PROPERTY INTEGRAL CALCULATIONS
------------------------------------------------------------------------------

GBWName                                   ... 001.gbw
Number of atoms                           ...      8
Number of basis functions                 ...     58
Max core memory                           ...   4096 MB

Dipole integrals                          ... YES
Quadrupole integrals                      ...  NO
Linear momentum integrals                 ...  NO
Angular momentum integrals                ...  NO
Higher moments length integrals           ...  NO
Higher moments velocity integrals         ...  NO
Kinetic energy integrals                  ...  NO
GIAO right hand sides                     ...  NO
GIAO dipole derivative integrals          ...  NO
SOC integrals                             ...  NO
EPR diamagnetic integrals (GIAO)          ...  NO
EPR gauge integrals                       ...  NO
Field gradient integrals                  ...  NO (   0 nuclei)
Spin-dipole/Fermi contact integrals       ...  NO (   0 nuclei)
Contact density integrals                 ...  NO (   0 nuclei)
Nucleus-orbit integrals                   ...  NO (   0 nuclei)
Geometric perturbations                   ...  NO (   8 nuclei)

Choice of electric origin   ... Center of mass
Position of electric origin ... ( -0.0000, -0.0000, -0.0000) 
Choice of magnetic origin   ... GIAO
Position of magnetic origin ... (  0.0000,  0.0000,  0.0000) 

Calculating integrals                     ... Electric Dipole (Length)     done (  0.0 sec)

Property integrals calculated in   0.0 sec

Maximum memory used throughout the entire PROPINT-calculation: 6.2 MB

-------------------------   --------------------
FINAL SINGLE POINT ENERGY       -79.640404301732
-------------------------   --------------------

------------------------------------------------------------------------------
                         ORCA SCF GRADIENT CALCULATION
------------------------------------------------------------------------------

Nuc. rep. gradient        (SHARK) ... done (  0.0 sec)
HCore & Overlap gradient  (SHARK) ... done (  0.1 sec)
Split-RIJ-J gradient      (SHARK) ... done (  0.4 sec)
XC gradient                       ... done (  1.8 sec)

------------------
CARTESIAN GRADIENT
------------------

   1   C   :    0.004549057   -0.000112001    0.000028462
   2   C   :   -0.004548663    0.000111315   -0.000028884
   3   H   :   -0.006095514   -0.001233997   -0.008112780
   4   H   :   -0.005942352    0.007833448    0.002788076
   5   H   :   -0.006318676   -0.006131353    0.005191990
   6   H   :    0.006095534    0.001234092    0.008112782
   7   H   :    0.006318559    0.006131178   -0.005191792
   8   H   :    0.005942055   -0.007832681   -0.002787853

Difference to translation invariance:
           :   -0.0000000000   -0.0000000000   -0.0000000000

Difference to rotation invariance:
           :    0.0000004806   -0.0000054049    0.0000037081

Norm of the Cartesian gradient     ...    0.0258500832
RMS gradient                       ...    0.0052766261
MAX gradient                       ...    0.0081127817

-------
TIMINGS
-------

Total SCF gradient time     ....        2.226 sec

One electron gradient       ....       0.064 sec  (  2.9%)
RI-J Coulomb gradient       ....       0.355 sec  ( 15.9%)
XC gradient                 ....       1.789 sec  ( 80.4%)

Maximum memory used throughout the entire SCFGRAD-calculation: 8.9 MB
------------------------------------------------------------------------------
                         ORCA GEOMETRY RELAXATION STEP
------------------------------------------------------------------------------

Reading the OPT-File                    .... done
Getting information on internals        .... done
Copying old internal coords+grads       .... done
Making the new internal coordinates     .... (2022 redundants) done
Validating the new internal coordinates .... (2022 redundants) done
Calculating the B-matrix                .... done
Calculating the G,G- and P matrices     .... done
Transforming gradient to internals      .... done
Projecting the internal gradient        .... done
Number of atoms                         ....   8
Number of internal coordinates          ....  25
Current Energy                          ....   -79.640404302 Eh
Current gradient norm                   ....     0.025850083 Eh/bohr
Maximum allowed component of the step   ....  0.300
Current trust radius                    ....  0.300
Evaluating the initial hessian          ....  (Almloef) done
Projecting the Hessian                  .... done
Forming the augmented Hessian           .... done
Diagonalizing the augmented Hessian     .... done
Last element of RFO vector              ....  0.996636971
Lowest eigenvalues of augmented Hessian:
 -0.002417479  0.012635133  0.107661446  0.134657415  0.134657531
Length of the computed step             ....  0.082220080
The final length of the internal step   ....  0.082220080
Converting the step to Cartesian space:
 Initial RMS(Int)=    0.0164440161
Transforming coordinates:
 Iter   0:  RMS(Cart)=    0.0247460614 RMS(Int)=    1.7772271574
done
Storing new coordinates                 .... done

                                .--------------------.
          ----------------------|Geometry convergence|-------------------------
          Item                value                   Tolerance       Converged
          ---------------------------------------------------------------------
          RMS gradient        0.0058963051            0.0001000000      NO
          MAX gradient        0.0138124690            0.0003000000      NO
          RMS step            0.0164440161            0.0020000000      NO
          MAX step            0.0344069637            0.0040000000      NO
          -------------------------------------------------------------------------
          ........................................................
          Max(Bonds)      0.0182      Max(Angles)    0.55
          Max(Dihed)        0.00      Max(Improp)    0.00
          ---------------------------------------------------------------------

The optimization has not yet converged - more geometry cycles are needed


    ---------------------------------------------------------------------------
                         Redundant Internal Coordinates
                            (Angstroem and degrees)

        Definition                    Value    dE/dq     Step     New-Value
    ----------------------------------------------------------------------------
     1. B(C   1,C   0)                1.5121 -0.013812  0.0182    1.5303   
     2. B(H   2,C   0)                1.0941 -0.009816  0.0145    1.1086   
     3. B(H   3,C   0)                1.0941 -0.009813  0.0145    1.1086   
     4. B(H   4,C   0)                1.0941 -0.009815  0.0145    1.1086   
     5. B(H   5,C   1)                1.0941 -0.009816  0.0145    1.1086   
     6. B(H   6,C   1)                1.0941 -0.009814  0.0145    1.1086   
     7. B(H   7,C   1)                1.0941 -0.009812  0.0145    1.1086   
     8. A(H   2,C   0,H   4)          108.35  0.002949   -0.55    107.81   
     9. A(C   1,C   0,H   4)          110.57 -0.002835    0.52    111.09   
    10. A(C   1,C   0,H   2)          110.57 -0.002838    0.52    111.09   
    11. A(H   3,C   0,H   4)          108.35  0.002950   -0.55    107.81   
    12. A(H   2,C   0,H   3)          108.35  0.002948   -0.54    107.81   
    13. A(C   1,C   0,H   3)          110.57 -0.002837    0.52    111.09   
    14. A(C   0,C   1,H   5)          110.57 -0.002839    0.52    111.09   
    15. A(H   6,C   1,H   7)          108.35  0.002953   -0.55    107.81   
    16. A(H   5,C   1,H   7)          108.35  0.002946   -0.54    107.81   
    17. A(C   0,C   1,H   7)          110.57 -0.002837    0.52    111.09   
    18. A(H   5,C   1,H   6)          108.35  0.002949   -0.55    107.81   
    19. A(C   0,C   1,H   6)          110.57 -0.002834    0.52    111.09   
    20. D(H   5,C   1,C   0,H   3)    -60.00 -0.000002    0.00    -60.00   
    21. D(H   5,C   1,C   0,H   4)     60.00  0.000001   -0.00     60.00   
    22. D(H   6,C   1,C   0,H   2)    -60.00  0.000001   -0.00    -60.00   
    23. D(H   6,C   1,C   0,H   3)     60.00 -0.000002    0.00     60.00   
    24. D(H   6,C   1,C   0,H   4)   -180.00  0.000001   -0.00   -180.00   
    25. D(H   5,C   1,C   0,H   2)   -180.00  0.000001   -0.00   -180.00   
    ----------------------------------------------------------------------------

Geometry step timings:
Preparation and reading OPT file:      0.001 s ( 5.882 %)
Internal coordinates            :      0.000 s ( 0.000 %)
B/P matrices and projection     :      0.001 s ( 5.882 %)
Hessian update/contruction      :      0.005 s (29.412 %)
Making the step                 :      0.007 s (41.176 %)
Converting the step to Cartesian:      0.001 s ( 5.882 %)
Storing new data                :      0.001 s ( 5.882 %)
Checking convergence            :      0.000 s ( 0.000 %)
Final printing                  :      0.001 s ( 5.882 %)
Total time                      :      0.017 s

Time for energy+gradient        :     12.931 s
Time for complete geometry iter :     13.250 s

         *************************************************************
         *                GEOMETRY OPTIMIZATION CYCLE   2            *
         *************************************************************
---------------------------------
CARTESIAN COORDINATES (ANGSTROEM)
---------------------------------
  C      0.764860   -0.019619    0.005683
  C     -0.764860    0.019618   -0.005683
  H      1.160575    0.145738    1.027995
  H      1.141410   -1.000118   -0.349107
  H      1.188930    0.764852   -0.652969
  H     -1.160576   -0.145737   -1.027995
  H     -1.188930   -0.764853    0.652968
  H     -1.141410    1.000117    0.349109

----------------------------
CARTESIAN COORDINATES (A.U.)
----------------------------
  NO LB      ZA    FRAG     MASS         X           Y           Z
   0 C     6.0000    0    12.011    1.445376   -0.037074    0.010739
   1 C     6.0000    0    12.011   -1.445377    0.037073   -0.010740
   2 H     1.0000    0     1.008    2.193170    0.275406    1.942629
   3 H     1.0000    0     1.008    2.156952   -1.889949   -0.659717
   4 H     1.0000    0     1.008    2.246752    1.445361   -1.233932
   5 H     1.0000    0     1.008   -2.193171   -0.275403   -1.942630
   6 H     1.0000    0     1.008   -2.246752   -1.445362    1.233930
   7 H     1.0000    0     1.008   -2.156952    1.889947    0.659720

--------------------------------
INTERNAL COORDINATES (ANGSTROEM)
--------------------------------
 C      0   0   0     0.000000000000     0.00000000     0.00000000
 C      1   0   0     1.530266033592     0.00000000     0.00000000
 H      1   2   0     1.108627604711   111.09032059     0.00000000
 H      1   2   3     1.108622762070   111.09001193   120.00110216
 H      1   2   3     1.108625661599   111.08949725   240.00009915
 H      2   1   3     1.108627610979   111.09034557   179.99990097
 H      2   1   3     1.108625662131   111.08950604   299.99986806
 H      2   1   3     1.108622871049   111.09000228    59.99877357

---------------------------
INTERNAL COORDINATES (A.U.)
---------------------------
 C      0   0   0     0.000000000000     0.00000000     0.00000000
 C      1   0   0     2.891783715531     0.00000000     0.00000000
 H      1   2   0     2.095002557409   111.09032059     0.00000000
 H      1   2   3     2.094993406144   111.09001193   120.00110216
 H      1   2   3     2.094998885460   111.08949725   240.00009915
 H      2   1   3     2.095002569254   111.09034557   179.99990097
 H      2   1   3     2.094998886465   111.08950604   299.99986806
 H      2   1   3     2.094993612084   111.09000228    59.99877357

------------------------------------------------------------------------------
                   ___                                                        
                  /   \      - P O W E R E D   B Y -                         
                 /     \                                                     
                 |  |  |   _    _      __       _____    __    __             
                 |  |  |  | |  | |    /  \     |  _  \  |  |  /  |          
                  \  \/   | |  | |   /    \    | | | |  |  | /  /          
                 / \  \   | |__| |  /  /\  \   | |_| |  |  |/  /          
                |  |  |   |  __  | /  /__\  \  |    /   |      \           
                |  |  |   | |  | | |   __   |  |    \   |  |\   \          
                \     /   | |  | | |  |  |  |  | |\  \  |  | \   \       
                 \___/    |_|  |_| |__|  |__|  |_| \__\ |__|  \__/        
                                                                              
                      - O R C A' S   B I G   F R I E N D -                    
                                      &                                       
                       - I N T E G R A L  F E E D E R -                       
                                                                              
 v1 FN, 2020, v2 2021, v3 2022-2024                                           
------------------------------------------------------------------------------


----------------------
SHARK INTEGRAL PACKAGE
----------------------

Number of atoms                             ...      8
Number of basis functions                   ...     58
Number of shells                            ...     30
Maximum angular momentum                    ...      2
Integral batch strategy                     ... SHARK/LIBINT Hybrid
RI-J (if used) integral strategy            ... SPLIT-RIJ (Revised 2003 algorithm where possible)
Printlevel                                  ...      1
Contraction scheme used                     ... SEGMENTED contraction
Prescreening option                         ... SCHWARTZ
   Thresh                                   ... 2.500e-11
   Tcut                                     ... 2.500e-12
   Tpresel                                  ... 2.500e-12 
Coulomb Range Separation                    ... NOT USED
Exchange Range Separation                   ... NOT USED
Multipole approximations                    ... NOT USED
Finite Nucleus Model                        ... NOT USED
CABS basis                                  ... NOT available
Auxiliary Coulomb fitting basis             ... AVAILABLE
   # of basis functions in Aux-J            ...    164
   # of shells in Aux-J                     ...     60
   Maximum angular momentum in Aux-J        ...      4
Auxiliary J/K fitting basis                 ... NOT available
Auxiliary Correlation fitting basis         ... NOT available
Auxiliary 'external' fitting basis          ... NOT available

Checking pre-screening integrals            ... done (  0.0 sec) Dimension = 30
   => SHARK Basis and OBASIS are compatible. Storing Pre-screening
Shell pair information
Shell pair cut-off parameter TPreSel        ...   2.5e-12
Total number of shell pairs                 ...       465
Shell pairs after pre-screening             ...       465
Total number of primitive shell pairs       ...      1529
Primitive shell pairs kept                  ...      1380
          la=0 lb=0:    171 shell pairs
          la=1 lb=0:    180 shell pairs
          la=1 lb=1:     55 shell pairs
          la=2 lb=0:     36 shell pairs
          la=2 lb=1:     20 shell pairs
          la=2 lb=2:      3 shell pairs

Checking whether 4 symmetric matrices of dimension 58 fit in memory
:Max Core in MB      =   4096.00
 MB in use           =      3.70
 MB left             =   4092.30
 MB needed           =      0.05
 Data fit in memory  = YES
Calculating RI/J V-Matrix + Cholesky decomp.... done (  0.0 sec)
Calculating Nuclear repulsion               ... done (  0.0 sec) ENN=     41.863944654602 Eh

Diagonalization of the overlap matrix:
Smallest eigenvalue                        ... 4.550e-03
Time for diagonalization                   ...    0.001 sec
Threshold for overlap eigenvalues          ... 1.000e-07
Number of eigenvalues below threshold      ... 0
Time for construction of square roots      ...    0.002 sec
Total time needed                          ...    0.004 sec

-------------------
DFT GRID GENERATION
-------------------

General Integration Accuracy     IntAcc      ... 4.388
Radial Grid Type                 RadialGrid  ... OptM3 with GC (2021)
Angular Grid (max. ang.)         AngularGrid ... 4 (Lebedev-302)
Angular grid pruning method      GridPruning ... 4 (adaptive)
Weight generation scheme         WeightScheme... mBecke (2022)
Basis function cutoff            BFCut       ... 1.0000e-11
Integration weight cutoff        WCut        ... 1.0000e-14
Partially contracted basis set               ... off
Rotationally invariant grid construction     ... off
Angular grids for H and He will be reduced by one unit

Total number of grid points                  ...    31672
Total number of batches                      ...      500
Average number of points per batch           ...       63
Average number of grid points per atom       ...     3959
Grids setup in   0.5 sec
Initializing property integral containers    ... done (  0.0 sec)

SHARK setup successfully completed in   0.6 seconds

Maximum memory used throughout the entire STARTUP-calculation: 13.3 MB
Occupation numbers will be reassigned to an Aufbau configuration
             **** ENERGY FILE WAS UPDATED (001.en.tmp) ****
Finished Guess after   0.2 sec
Maximum memory used throughout the entire GUESS-calculation: 6.1 MB
----------------------------------------D-I-I-S--------------------------------------------
Iteration    Energy (Eh)           Delta-E    RMSDP     MaxDP     DIISErr   Damp  Time(sec)
-------------------------------------------------------------------------------------------
               ***  Starting incremental Fock matrix formation  ***
    1    -79.6415081906603746     0.00e+00  2.53e-04  3.74e-03  5.35e-03  0.700   0.4
                              *** Initializing SOSCF ***
---------------------------------------S-O-S-C-F--------------------------------------
Iteration    Energy (Eh)           Delta-E    RMSDP     MaxDP     MaxGrad    Time(sec)
--------------------------------------------------------------------------------------
    2    -79.6415784010800678    -7.02e-05  6.88e-04  1.00e-02  3.22e-03     0.5
               *** Restarting incremental Fock matrix formation ***
    3    -79.6417047449379822    -1.26e-04  3.59e-04  4.15e-03  1.07e-03     0.4
    4    -79.6416846712535005     2.01e-05  2.11e-04  2.34e-03  1.60e-03     0.3
    5    -79.6417199681453098    -3.53e-05  1.18e-05  8.85e-05  6.09e-05     0.3
    6    -79.6417199947022425    -2.66e-08  4.03e-06  3.17e-05  3.60e-05     0.3
    7    -79.6417200059841264    -1.13e-08  2.01e-07  2.18e-06  6.36e-07     0.3
                  *** Gradient check signals convergence ***

               *****************************************************
               *                     SUCCESS                       *
               *           SCF CONVERGED AFTER   7 CYCLES          *
               *****************************************************

             **** ENERGY FILE WAS UPDATED (001.en.tmp) ****

----------------
TOTAL SCF ENERGY
----------------

Total Energy       :        -79.64172000638993 Eh           -2167.16138 eV

Components:
Nuclear Repulsion  :         41.86394465460163 Eh            1139.17585 eV
Electronic Energy  :       -121.50566466099156 Eh           -3306.33723 eV
One Electron Energy:       -188.46749707053286 Eh           -5128.46132 eV
Two Electron Energy:         66.96183240954130 Eh            1822.12409 eV

Virial components:
Potential Energy   :       -158.15118829442429 Eh           -4303.51262 eV
Kinetic Energy     :         78.50946828803434 Eh            2136.35124 eV
Virial Ratio       :          2.01442184927558

DFT components:
N(Alpha)           :        8.999996819865 electrons
N(Beta)            :        8.999996819865 electrons
N(Total)           :       17.999993639729 electrons
E(X)               :      -12.338805456168 Eh       
E(C)               :       -0.565332252177 Eh       
E(XC)              :      -12.904137708345 Eh       

---------------
SCF CONVERGENCE
---------------

  Last Energy change         ...    1.1282e-08  Tolerance :   1.0000e-08
  Last MAX-Density change    ...    2.1794e-06  Tolerance :   1.0000e-07
  Last RMS-Density change    ...    2.0086e-07  Tolerance :   5.0000e-09
  Last DIIS Error            ...    3.2202e-03  Tolerance :   5.0000e-07
  Last Orbital Gradient      ...    6.3584e-07  Tolerance :   1.0000e-05
  Last Orbital Rotation      ...    7.7270e-07  Tolerance :   1.0000e-05


Total SCF time: 0 days 0 hours 0 min 2 sec 
Finished LeanSCF after   3.0 sec

Maximum memory used throughout the entire LEANSCF-calculation: 7.0 MB

------------------------------------------------------------------------------
                         ORCA PROPERTY INTEGRAL CALCULATIONS
------------------------------------------------------------------------------

GBWName                                   ... 001.gbw
Number of atoms                           ...      8
Number of basis functions                 ...     58
Max core memory                           ...   4096 MB

Dipole integrals                          ... YES
Quadrupole integrals                      ...  NO
Linear momentum integrals                 ...  NO
Angular momentum integrals                ...  NO
Higher moments length integrals           ...  NO
Higher moments velocity integrals         ...  NO
Kinetic energy integrals                  ...  NO
GIAO right hand sides                     ...  NO
GIAO dipole derivative integrals          ...  NO
SOC integrals                             ...  NO
EPR diamagnetic integrals (GIAO)          ...  NO
EPR gauge integrals                       ...  NO
Field gradient integrals                  ...  NO (   0 nuclei)
Spin-dipole/Fermi contact integrals       ...  NO (   0 nuclei)
Contact density integrals                 ...  NO (   0 nuclei)
Nucleus-orbit integrals                   ...  NO (   0 nuclei)
Geometric perturbations                   ...  NO (   8 nuclei)

Choice of electric origin   ... Center of mass
Position of electric origin ... ( -0.0000, -0.0000, -0.0000) 
Choice of magnetic origin   ... GIAO
Position of magnetic origin ... (  0.0000,  0.0000,  0.0000) 

Calculating integrals                     ... Electric Dipole (Length)     done (  0.0 sec)

Property integrals calculated in   0.0 sec

Maximum memory used throughout the entire PROPINT-calculation: 6.2 MB

-------------------------   --------------------
FINAL SINGLE POINT ENERGY       -79.641720006390
-------------------------   --------------------

------------------------------------------------------------------------------
                         ORCA SCF GRADIENT CALCULATION
------------------------------------------------------------------------------

Nuc. rep. gradient        (SHARK) ... done (  0.0 sec)
HCore & Overlap gradient  (SHARK) ... done (  0.0 sec)
Split-RIJ-J gradient      (SHARK) ... done (  0.2 sec)
XC gradient                       ... done (  1.7 sec)

------------------
CARTESIAN GRADIENT
------------------

   1   C   :    0.003317066   -0.000081613    0.000022327
   2   C   :   -0.003317001    0.000081509   -0.000022450
   3   H   :   -0.001367788    0.000049000    0.000079342
   4   H   :   -0.001368813   -0.000050586   -0.000040549
   5   H   :   -0.001364458    0.000104946   -0.000066996
   6   H   :    0.001367783   -0.000048973   -0.000079366
   7   H   :    0.001364436   -0.000104878    0.000067048
   8   H   :    0.001368775    0.000050595    0.000040644

Difference to translation invariance:
           :    0.0000000000   -0.0000000000   -0.0000000000

Difference to rotation invariance:
           :    0.0000053394   -0.0000061491    0.0000019525

Norm of the Cartesian gradient     ...    0.0057696480
RMS gradient                       ...    0.0011777245
MAX gradient                       ...    0.0033170664

-------
TIMINGS
-------

Total SCF gradient time     ....        1.924 sec

One electron gradient       ....       0.041 sec  (  2.1%)
RI-J Coulomb gradient       ....       0.214 sec  ( 11.1%)
XC gradient                 ....       1.669 sec  ( 86.7%)

Maximum memory used throughout the entire SCFGRAD-calculation: 8.9 MB
------------------------------------------------------------------------------
                         ORCA GEOMETRY RELAXATION STEP
------------------------------------------------------------------------------

Reading the OPT-File                    .... done
Getting information on internals        .... done
Copying old internal coords+grads       .... done
Making the new internal coordinates     .... (2022 redundants) done
Validating the new internal coordinates .... (2022 redundants) done
Calculating the B-matrix                .... done
Calculating the G,G- and P matrices     .... done
Transforming gradient to internals      .... done
Projecting the internal gradient        .... done
Number of atoms                         ....   8
Number of internal coordinates          ....  25
Current Energy                          ....   -79.641720006 Eh
Current gradient norm                   ....     0.005769648 Eh/bohr
Maximum allowed component of the step   ....  0.300
Current trust radius                    ....  0.300
Updating the Hessian (BFGS)             .... done
Forming the augmented Hessian           .... done
Diagonalizing the augmented Hessian     .... done
Last element of RFO vector              ....  0.999831961
Lowest eigenvalues of augmented Hessian:
 -0.000087595  0.012635133  0.107661445  0.134657407  0.134657531
Length of the computed step             ....  0.018334749
The final length of the internal step   ....  0.018334749
Converting the step to Cartesian space:
 Initial RMS(Int)=    0.0036669499
Transforming coordinates:
 Iter   0:  RMS(Cart)=    0.0059765167 RMS(Int)=    0.0036749266
done
Storing new coordinates                 .... done
The predicted energy change is          ....    -0.000043812
Previously predicted energy change      ....    -0.001216911
Actually observed energy change         ....    -0.001315705
Ratio of predicted to observed change   ....     1.081184383
New trust radius                        ....     0.450000000

                                .--------------------.
          ----------------------|Geometry convergence|-------------------------
          Item                value                   Tolerance       Converged
          ---------------------------------------------------------------------
          Energy change      -0.0013157047            0.0000050000      NO
          RMS gradient        0.0009568270            0.0001000000      NO
          MAX gradient        0.0013699004            0.0003000000      NO
          RMS step            0.0036669499            0.0020000000      NO
          MAX step            0.0051444112            0.0040000000      NO
          -------------------------------------------------------------------------
          ........................................................
          Max(Bonds)      0.0016      Max(Angles)    0.29
          Max(Dihed)        0.00      Max(Improp)    0.00
          ---------------------------------------------------------------------

The optimization has not yet converged - more geometry cycles are needed


    ---------------------------------------------------------------------------
                         Redundant Internal Coordinates
                            (Angstroem and degrees)

        Definition                    Value    dE/dq     Step     New-Value
    ----------------------------------------------------------------------------
     1. B(C   1,C   0)                1.5303 -0.000784  0.0016    1.5319   
     2. B(H   2,C   0)                1.1086 -0.000408  0.0010    1.1097   
     3. B(H   3,C   0)                1.1086 -0.000407  0.0010    1.1096   
     4. B(H   4,C   0)                1.1086 -0.000408  0.0010    1.1097   
     5. B(H   5,C   1)                1.1086 -0.000408  0.0010    1.1097   
     6. B(H   6,C   1)                1.1086 -0.000408  0.0010    1.1097   
     7. B(H   7,C   1)                1.1086 -0.000407  0.0010    1.1096   
     8. A(H   2,C   0,H   4)          107.81  0.001369   -0.29    107.51   
     9. A(C   1,C   0,H   4)          111.09 -0.001293    0.28    111.37   
    10. A(C   1,C   0,H   2)          111.09 -0.001294    0.28    111.37   
    11. A(H   3,C   0,H   4)          107.80  0.001369   -0.29    107.51   
    12. A(H   2,C   0,H   3)          107.81  0.001368   -0.29    107.51   
    13. A(C   1,C   0,H   3)          111.09 -0.001294    0.28    111.37   
    14. A(C   0,C   1,H   5)          111.09 -0.001295    0.28    111.37   
    15. A(H   6,C   1,H   7)          107.80  0.001370   -0.29    107.51   
    16. A(H   5,C   1,H   7)          107.81  0.001367   -0.29    107.51   
    17. A(C   0,C   1,H   7)          111.09 -0.001294    0.28    111.37   
    18. A(H   5,C   1,H   6)          107.81  0.001369   -0.29    107.51   
    19. A(C   0,C   1,H   6)          111.09 -0.001292    0.28    111.37   
    20. D(H   5,C   1,C   0,H   3)    -60.00 -0.000001    0.00    -60.00   
    21. D(H   5,C   1,C   0,H   4)     60.00 -0.000000    0.00     60.00   
    22. D(H   6,C   1,C   0,H   2)    -60.00  0.000001   -0.00    -60.00   
    23. D(H   6,C   1,C   0,H   3)     60.00 -0.000001    0.00     60.00   
    24. D(H   6,C   1,C   0,H   4)    180.00  0.000000   -0.00    180.00   
    25. D(H   5,C   1,C   0,H   2)    180.00  0.000000   -0.00    180.00   
    ----------------------------------------------------------------------------

Geometry step timings:
Preparation and reading OPT file:      0.000 s ( 0.000 %)
Internal coordinates            :      0.000 s ( 0.000 %)
B/P matrices and projection     :      0.000 s ( 0.000 %)
Hessian update/contruction      :      0.004 s (50.000 %)
Making the step                 :      0.000 s ( 0.000 %)
Converting the step to Cartesian:      0.000 s ( 0.000 %)
Storing new data                :      0.001 s (12.500 %)
Checking convergence            :      0.001 s (12.500 %)
Final printing                  :      0.002 s (25.000 %)
Total time                      :      0.008 s

Time for energy+gradient        :      6.392 s
Time for complete geometry iter :      6.545 s

         *************************************************************
         *                GEOMETRY OPTIMIZATION CYCLE   3            *
         *************************************************************
---------------------------------
CARTESIAN COORDINATES (ANGSTROEM)
---------------------------------
  C      0.765659   -0.019641    0.005691
  C     -0.765659    0.019641   -0.005692
  H      1.166794    0.145412    1.027054
  H      1.147647   -0.999336   -0.348715
  H      1.195119    0.763918   -0.652281
  H     -1.166795   -0.145408   -1.027055
  H     -1.195119   -0.763921    0.652278
  H     -1.147647    0.999334    0.348720

----------------------------
CARTESIAN COORDINATES (A.U.)
----------------------------
  NO LB      ZA    FRAG     MASS         X           Y           Z
   0 C     6.0000    0    12.011    1.446885   -0.037117    0.010755
   1 C     6.0000    0    12.011   -1.446885    0.037116   -0.010756
   2 H     1.0000    0     1.008    2.204922    0.274790    1.940850
   3 H     1.0000    0     1.008    2.168738   -1.888471   -0.658976
   4 H     1.0000    0     1.008    2.258448    1.443596   -1.232633
   5 H     1.0000    0     1.008   -2.204923   -0.274781   -1.940852
   6 H     1.0000    0     1.008   -2.258448   -1.443602    1.232626
   7 H     1.0000    0     1.008   -2.168739    1.888467    0.658986

--------------------------------
INTERNAL COORDINATES (ANGSTROEM)
--------------------------------
 C      0   0   0     0.000000000000     0.00000000     0.00000000
 C      1   0   0     1.531863397538     0.00000000     0.00000000
 H      1   2   0     1.109655151396   111.37018697     0.00000000
 H      1   2   3     1.109648814398   111.36985225   120.00183825
 H      1   2   3     1.109652941240   111.36887796   240.00035790
 H      2   1   3     1.109655126420   111.37021968   179.99973620
 H      2   1   3     1.109652947479   111.36886784   299.99942366
 H      2   1   3     1.109648812900   111.36984418    59.99783835

---------------------------
INTERNAL COORDINATES (A.U.)
---------------------------
 C      0   0   0     0.000000000000     0.00000000     0.00000000
 C      1   0   0     2.894802295925     0.00000000     0.00000000
 H      1   2   0     2.096944339233   111.37018697     0.00000000
 H      1   2   3     2.096932364043   111.36985225   120.00183825
 H      1   2   3     2.096940162645   111.36887796   240.00035790
 H      2   1   3     2.096944292035   111.37021968   179.99973620
 H      2   1   3     2.096940174434   111.36886784   299.99942366
 H      2   1   3     2.096932361211   111.36984418    59.99783835

------------------------------------------------------------------------------
                   ___                                                        
                  /   \      - P O W E R E D   B Y -                         
[...]
      8       0.000000   0.000000   0.000000   0.000000   0.000000   0.000000
      9       0.000000   0.000000   0.000000   0.000000   0.000000   0.000000
     10       0.000000   0.000000   0.000000   0.000000   0.000000   0.000000
     11       0.000000   0.000000   0.000000   0.000000   0.000000   0.000000
     12       0.000000   0.000000   0.000000   0.000000   0.000000   0.000000
     13       0.000000   0.000000   0.000000   0.000000   0.000000   0.000000
     14       0.000000   0.000000   0.000000   0.000000   0.000000   0.000000
     15       0.000000   0.000000   0.000000   0.000000   0.000000   0.000000
     16       0.000000   0.000000   0.000000   0.000000   0.000000   0.000000
     17       0.000000   0.000000   0.000000   0.000000   0.000000   0.000000
     18       0.000000   0.000000   0.000000   0.000000   0.000000   0.000000
     19       0.000000   0.000000   0.000000   0.000000   0.000000   0.000000
     20       0.000000   0.000000   0.000000   0.000000   0.000000   0.000000
     21       0.000000   0.000000   0.000000   0.000000   0.000000   0.000000
     22       0.000000   0.000000   0.000000   0.000000   0.000000   0.000000
     23       0.000000   0.000000   0.000000   0.000000   0.000000   0.000000
                  6          7          8          9         10         11    
      0      -0.000022   0.000989  -0.000813   0.295589   0.003326  -0.002079
      1       0.000010   0.026745  -0.040580  -0.007584   0.096515  -0.111770
      2      -0.000032  -0.040576  -0.026749   0.002202  -0.111770  -0.096558
      3      -0.000022   0.000989  -0.000813  -0.295589  -0.003326   0.002079
      4       0.000010   0.026745  -0.040580   0.007584  -0.096515   0.111770
      5      -0.000032  -0.040576  -0.026749  -0.002202   0.111770   0.096558
      6      -0.010994  -0.372191  -0.341049   0.370150  -0.313028  -0.369393
      7      -0.402295  -0.126406   0.192813  -0.013271  -0.204324   0.195921
      8       0.069314   0.135846   0.073934  -0.018906   0.067996   0.006422
      9       0.006653  -0.119304   0.493213   0.370566  -0.174808   0.451889
     10       0.141096  -0.107990   0.111379   0.011086  -0.105561  -0.000416
     11      -0.382833   0.197604   0.105232   0.010382   0.243777   0.114304
     12       0.004601   0.479706  -0.142474   0.369450   0.476387  -0.075743
     13       0.261079  -0.084288   0.179347  -0.026357  -0.021959   0.189184
     14       0.313905   0.150045   0.139563   0.016784   0.072582   0.210964
     15      -0.010994  -0.372192  -0.341049  -0.370150   0.313028   0.369392
     16      -0.402295  -0.126406   0.192813   0.013271   0.204324  -0.195921
     17       0.069313   0.135846   0.073934   0.018906  -0.067996  -0.006422
     18       0.004601   0.479706  -0.142474  -0.369450  -0.476387   0.075743
     19       0.261079  -0.084288   0.179346   0.026357   0.021959  -0.189184
     20       0.313905   0.150045   0.139563  -0.016784  -0.072583  -0.210965
     21       0.006653  -0.119304   0.493213  -0.370566   0.174808  -0.451889
     22       0.141096  -0.107990   0.111379  -0.011086   0.105562   0.000416
     23      -0.382833   0.197604   0.105232  -0.010382  -0.243777  -0.114303
                 12         13         14         15         16         17    
      0       0.092572  -0.116827  -0.000385   0.000026   0.001250   0.000082
      1      -0.002332   0.002938  -0.014473   0.007078   0.045099   0.017502
      2       0.000706  -0.000935   0.007108   0.014555  -0.017492   0.045127
      3       0.092572   0.116827   0.000385  -0.000026   0.001250   0.000082
      4      -0.002332  -0.002938   0.014472  -0.007079   0.045100   0.017502
      5       0.000706   0.000935  -0.007107  -0.014556  -0.017492   0.045127
      6      -0.368120   0.360402  -0.072637  -0.297907   0.032532  -0.229834
      7       0.037648  -0.039528   0.456352  -0.102027  -0.499543  -0.072844
      8       0.163795  -0.174955  -0.044629   0.134904   0.060459   0.138427
      9      -0.371335   0.363875  -0.209238   0.227744   0.170674   0.161055
     10      -0.148911   0.159626   0.044443   0.189992  -0.031806   0.207742
     11      -0.061253   0.065105  -0.351037  -0.276528   0.352103  -0.329835
     12      -0.363601   0.355619   0.295611   0.068257  -0.218096   0.067801
     13       0.139047  -0.147345  -0.025266  -0.318622  -0.006039  -0.343450
     14      -0.110950   0.118246   0.164980  -0.334303  -0.204138  -0.346315
     15      -0.368120  -0.360402   0.072634   0.297911   0.032541  -0.229829
     16       0.037648   0.039528  -0.456342   0.102041  -0.499551  -0.072837
     17       0.163795   0.174955   0.044628  -0.134908   0.060456   0.138424
     18      -0.363601  -0.355619  -0.295606  -0.068253  -0.218103   0.067803
     19       0.139047   0.147345   0.025263   0.318629  -0.006031  -0.343442
     20      -0.110950  -0.118246  -0.164979   0.334316  -0.204133  -0.346307
     21      -0.371335  -0.363875   0.209236  -0.227751   0.170672   0.161048
     22      -0.148911  -0.159626  -0.044441  -0.189996  -0.031812   0.207738
     23      -0.061253  -0.065105   0.351027   0.276527   0.352117  -0.329832
                 18         19         20         21         22         23    
      0       0.037734  -0.035338  -0.001235   0.001277  -0.001137  -0.001364
      1      -0.001011   0.000932  -0.029887   0.058204  -0.025856  -0.060569
      2       0.000329  -0.000303   0.058221   0.029906   0.060588  -0.025874
      3      -0.037734  -0.035338   0.001235  -0.001277  -0.001137  -0.001364
      4       0.001011   0.000932   0.029887  -0.058204  -0.025856  -0.060569
      5      -0.000329  -0.000303  -0.058220  -0.029906   0.060588  -0.025874
      6      -0.141395   0.139353  -0.164913  -0.123701  -0.175228   0.113000
      7      -0.061218   0.061387  -0.077190  -0.039651  -0.077820   0.036791
      8      -0.377856   0.378592  -0.421236  -0.320421  -0.442591   0.288760
      9      -0.134230   0.132172  -0.023863   0.194765  -0.010116  -0.198356
     10       0.362103  -0.362711   0.055976  -0.504712   0.021313   0.506681
     11       0.131107  -0.131359   0.036011  -0.180729   0.019921   0.182687
     12      -0.151477   0.149552   0.203494  -0.086349   0.198895   0.101611
     13      -0.289414   0.290222   0.377911  -0.150305   0.364595   0.178244
     14       0.242965  -0.243618  -0.309671   0.144196  -0.299280  -0.163140
     15       0.141394   0.139354   0.164913   0.123701  -0.175229   0.113000
     16       0.061217   0.061387   0.077190   0.039651  -0.077819   0.036790
     17       0.377854   0.378594   0.421236   0.320422  -0.442592   0.288758
     18       0.151477   0.149553  -0.203493   0.086350   0.198895   0.101612
     19       0.289412   0.290224  -0.377911   0.150305   0.364596   0.178245
     20      -0.242963  -0.243619   0.309669  -0.144196  -0.299281  -0.163140
     21       0.134229   0.132173   0.023862  -0.194766  -0.010116  -0.198356
     22      -0.362101  -0.362713  -0.055975   0.504713   0.021313   0.506680
     23      -0.131106  -0.131360  -0.036010   0.180730   0.019921   0.182688


-----------
IR SPECTRUM
-----------

 Mode   freq       eps      Int      T**2         TX        TY        TZ
       cm**-1   L/(mol*cm) km/mol    a.u.
----------------------------------------------------------------------------
  6:    308.78   0.000000    0.00  0.000000  (-0.000003 -0.000068 -0.000091)
  7:    796.43   0.001260    6.37  0.000494  (-0.000423 -0.012216  0.018555)
  8:    796.64   0.001265    6.39  0.000495  ( 0.000423  0.018570  0.012263)
  9:   1004.54   0.000000    0.00  0.000000  (-0.000000 -0.000000 -0.000000)
 10:   1160.52   0.000000    0.00  0.000000  (-0.000000 -0.000000 -0.000000)
 11:   1160.65   0.000000    0.00  0.000000  ( 0.000000 -0.000000  0.000000)
 12:   1334.58   0.000012    0.06  0.000003  (-0.001672  0.000001 -0.000028)
 13:   1365.37   0.000000    0.00  0.000000  ( 0.000000  0.000000 -0.000000)
 14:   1426.67   0.000000    0.00  0.000000  ( 0.000000  0.000000 -0.000000)
 15:   1426.88   0.000000    0.00  0.000000  ( 0.000000  0.000000  0.000000)
 16:   1427.80   0.001777    8.98  0.000388  (-0.000533 -0.018361  0.007140)
 17:   1427.99   0.001781    9.00  0.000389  (-0.000061 -0.007136 -0.018393)
 18:   2970.04   0.000000    0.00  0.000000  ( 0.000000  0.000000  0.000000)
 19:   2970.30   0.010397   52.54  0.001092  (-0.033035  0.000942 -0.000258)
 20:   3042.44   0.000000    0.00  0.000000  (-0.000000 -0.000000  0.000000)
 21:   3042.79   0.000000    0.00  0.000000  (-0.000000 -0.000000 -0.000000)
 22:   3063.66   0.009030   45.63  0.000920  (-0.000493 -0.011914  0.027885)
 23:   3063.96   0.009014   45.55  0.000918  (-0.000632 -0.027852 -0.011911)

* The epsilon (eps) is given for a Dirac delta lineshape.
** The dipole moment derivative (T) already includes vibrational overlap.

The first frequency considered to be a vibration is 6
The total number of vibrations considered is 18


--------------------------
THERMOCHEMISTRY AT 298.15K
--------------------------

Temperature         ...   298.15 K
Pressure            ...     1.00 atm
Total Mass          ...    30.07 AMU
Quasi RRHO          ...     True
Cut-Off Frequency   ...     1.00 cm^-1

Throughout the following assumptions are being made:
  (1) The electronic state is orbitally nondegenerate
  (2) There are no thermally accessible electronically excited states
  (3) Hindered rotations indicated by low frequency modes are not
      treated as such but are treated as vibrations and this may
      cause some error
  (4) All equations used are the standard statistical mechanics
      equations for an ideal gas
  (5) All vibrations are strictly harmonic

freq.     308.78  E(vib)   ...       0.26 
freq.     796.43  E(vib)   ...       0.05 
freq.     796.64  E(vib)   ...       0.05 
freq.    1004.54  E(vib)   ...       0.02 
freq.    1160.52  E(vib)   ...       0.01 
freq.    1160.65  E(vib)   ...       0.01 
freq.    1334.58  E(vib)   ...       0.01 
freq.    1365.37  E(vib)   ...       0.01 
freq.    1426.67  E(vib)   ...       0.00 
freq.    1426.88  E(vib)   ...       0.00 
freq.    1427.80  E(vib)   ...       0.00 
freq.    1427.99  E(vib)   ...       0.00 
freq.    2970.04  E(vib)   ...       0.00 
freq.    2970.30  E(vib)   ...       0.00 
freq.    3042.44  E(vib)   ...       0.00 
freq.    3042.79  E(vib)   ...       0.00 
freq.    3063.66  E(vib)   ...       0.00 
freq.    3063.96  E(vib)   ...       0.00 

------------
INNER ENERGY
------------

The inner energy is: U= E(el) + E(ZPE) + E(vib) + E(rot) + E(trans)
    E(el)   - is the total energy from the electronic structure calculation
              = E(kin-el) + E(nuc-el) + E(el-el) + E(nuc-nuc)
    E(ZPE)  - the the zero temperature vibrational energy from the frequency calculation
    E(vib)  - the the finite temperature correction to E(ZPE) due to population
              of excited vibrational states
    E(rot)  - is the rotational thermal energy
    E(trans)- is the translational thermal energy

Summary of contributions to the inner energy U:
Electronic energy                ...    -79.64180763 Eh
Zero point energy                ...      0.07242302 Eh      45.45 kcal/mol
Thermal vibrational correction   ...      0.00068848 Eh       0.43 kcal/mol
Thermal rotational correction    ...      0.00141627 Eh       0.89 kcal/mol
Thermal translational correction ...      0.00141627 Eh       0.89 kcal/mol
-----------------------------------------------------------------------
Total thermal energy                    -79.56586359 Eh


Summary of corrections to the electronic energy:
(perhaps to be used in another calculation)
Total thermal correction                  0.00352103 Eh       2.21 kcal/mol
Non-thermal (ZPE) correction              0.07242302 Eh      45.45 kcal/mol
-----------------------------------------------------------------------
Total correction                          0.07594405 Eh      47.66 kcal/mol


--------
ENTHALPY
--------

The enthalpy is H = U + kB*T
                kB is Boltzmann's constant
Total thermal energy              ...    -79.56586359 Eh 
Thermal Enthalpy correction       ...      0.00094421 Eh       0.59 kcal/mol
-----------------------------------------------------------------------
Total Enthalpy                    ...    -79.56491938 Eh


Note: Rotational entropy computed according to Herzberg 
Infrared and Raman Spectra, Chapter V,1, Van Nostrand Reinhold, 1945 
Point Group:  D3d, Symmetry Number:   6  
Rotational constants in cm-1:     2.622311     0.659160     0.659156 

Vibrational entropy computed according to the QRRHO of S. Grimme
Chem.Eur.J. 2012 18 9955 using a reference frequency of 100.0 cm-1


-------
ENTROPY
-------

The entropy contributions are T*S = T*(S(el)+S(vib)+S(rot)+S(trans))
     S(el)   - electronic entropy
     S(vib)  - vibrational entropy
     S(rot)  - rotational entropy
     S(trans)- translational entropy
The entropies will be listed as multiplied by the temperature to get
units of energy

Electronic entropy                ...      0.00000000 Eh      0.00 kcal/mol
Vibrational entropy               ...      0.00099362 Eh      0.62 kcal/mol
Rotational entropy                ...      0.00775747 Eh      4.87 kcal/mol
Translational entropy             ...      0.01716939 Eh     10.77 kcal/mol
-----------------------------------------------------------------------
Final entropy term                ...      0.02592048 Eh     16.27 kcal/mol

In case the symmetry of your molecule has not been determined correctly
or in case you have a reason to use a different symmetry number we print 
out the resulting rotational entropy values for sn=1,12:

 non-linear molecules -----------------------------------
|  sn= 1 | S(rot)=       0.00944922 Eh      5.93 kcal/mol|
|  sn= 2 | S(rot)=       0.00879476 Eh      5.52 kcal/mol|
|  sn= 3 | S(rot)=       0.00841193 Eh      5.28 kcal/mol|
|  sn= 4 | S(rot)=       0.00814030 Eh      5.11 kcal/mol|
|  sn= 5 | S(rot)=       0.00792962 Eh      4.98 kcal/mol|
|  sn= 6 | S(rot)=       0.00775747 Eh      4.87 kcal/mol|
|  sn= 7 | S(rot)=       0.00761192 Eh      4.78 kcal/mol|
|  sn= 8 | S(rot)=       0.00748585 Eh      4.70 kcal/mol|
|  sn= 9 | S(rot)=       0.00737464 Eh      4.63 kcal/mol|
|  sn=10 | S(rot)=       0.00727516 Eh      4.57 kcal/mol|
|  sn=11 | S(rot)=       0.00718517 Eh      4.51 kcal/mol|
|  sn=12 | S(rot)=       0.00710301 Eh      4.46 kcal/mol|
 linear molecules ---------------------------------------
|  Dinfh | S(rot)=       0.00571934 Eh      3.59 kcal/mol|
|  Cinfv | S(rot)=       0.00637379 Eh      4.00 kcal/mol|
 --------------------------------------------------------


-------------------
GIBBS FREE ENERGY
-------------------

The Gibbs free energy is G = H - T*S

Total enthalpy                    ...    -79.56491938 Eh 
Total entropy correction          ...     -0.02592048 Eh    -16.27 kcal/mol
-----------------------------------------------------------------------
Final Gibbs free energy         ...    -79.59083985 Eh

For completeness - the Gibbs free energy minus the electronic energy
G-E(el)                           ...      0.05096778 Eh     31.98 kcal/mol


Maximum memory used throughout the entire PROP-calculation: 13.7 MB

--------------------------------
SUGGESTED CITATIONS FOR THIS RUN
--------------------------------

Below you find a list of papers that are relevant to this ORCA run
We neither can nor want to force you to cite these papers, but we appreciate if you do
You receive ORCA, which is the product of decades of hard work by many enthusiastic individuals, for free
The only thing we kindly ask in return is that you cite our papers,
We deeply appreciate it, if you show your appreciation for ORCA by not just citing the generic ORCA reference.

Please note that relegating all ORCA citations to the supporting information does *not* help us.
SI sections are not indexed - citations you put there will not count into any citation statistics
But we need these citations in order to attract the funding resources that allow us to do what we are doing

Therefore, if you are a happy ORCA user, please consider citing a few of the papers listed below in the main body of your paper

In addition to the list printed below, the program has created the file 001.bibtex that contains the list in bibtex format
You can import this file easily into all common literature databanks and citation aid programs


List of essential papers. We consider these as the minimum necessary citations

  1. Neese, F.
     Software update: the ORCA program system, version 6.0
     WIRES Comput. Molec. Sci. 2025 15(1), e70019
     doi.org/10.1002/wcms.7019

List of papers to cite with high priority. The work reported in these papers was absolutely
necessary for this run to complete.
Our perspective: the developers of density functionals and basis sets usually get cited in chemistry papers
Good! But without the algorithms to do something with them, the functionals or basis sets would not do anything.
Hence, in our opinion, the algorithm design and method developments papers are equally worthy of getting cited

  1. Neese, F.
     An improvement of the resolution of the identity approximation for the formation of the Coulomb matrix
     J. Comp. Chem. 2003 24(14), 1740-1747
     doi.org/10.1002/jcc.10318
  2. Bykov, D.; Petrenko, T.; Izsak, R.; Kossmann, S.; Becker, U.; Valeev, E.; Neese, F.
     Efficient implementation of the analytic second derivatives of Hartree-Fock and hybrid DFT energies: a detailed analysis of different approximations
     Molec. Phys. 2015 113 , 1961-1977
     doi.org/10.1080/00268976.2015.1025114
  3. Neese, F.
     The SHARK Integral Generation and Digestion System
     J. Comp. Chem. 2022 44(3), 381
     doi.org/10.1002/jcc.26942

List of suggested additional citations. These are papers that are important in the 'surrounding' of 
of this run, or papers that preceded the highly important papers. If you like your results we are grateful for a citation.

  1. Neese, F.
     The ORCA program system
     WIRES Comput. Molec. Sci. 2012 2(1), 73-78
     doi.org/10.1002/wcms.81
  2. Neese, F.
     Software update: the ORCA program system, version 4.0
     WIRES Comput. Molec. Sci. 2018 8(1), 1-6
     doi.org/10.1002/wcms.1327
  3. Neese, F.; Wennmohs, F.; Becker, U.; Riplinger, C.
     The ORCA quantum chemistry program package
     J. Chem. Phys. 2020 152(22), 224108
     doi.org/10.1063/5.0004608
  4. Neese, F.
     Software update: The ORCA program system—Version 5.0
     WIRES Comput. Molec. Sci. 2022 12(1), e1606
     doi.org/10.1002/wcms.1606

List of optional additional citations

  1. Neese, F.
     Approximate second-order SCF convergence for spin unrestricted wavefunctions
     Chem. Phys. Lett. 2000 325(1-3), 93-98
     doi.org/10.1016/s0009-2614(00)00662-x

Timings for individual modules:

Sum of individual times          ...       73.582 sec (=   1.226 min)
Startup calculation              ...        5.050 sec (=   0.084 min)   6.9 %
SCF iterations                   ...       23.748 sec (=   0.396 min)  32.3 %
Property integrals               ...       14.254 sec (=   0.238 min)  19.4 %
SCF Response                     ...        6.634 sec (=   0.111 min)   9.0 %
Property calculations            ...       11.317 sec (=   0.189 min)  15.4 %
SCF Gradient evaluation          ...       12.442 sec (=   0.207 min)  16.9 %
Geometry relaxation              ...        0.137 sec (=   0.002 min)   0.2 %
                             ****ORCA TERMINATED NORMALLY****
TOTAL RUN TIME: 0 days 0 hours 1 minutes 15 seconds 129 msec
